54   
3    

1    
  0.0123263299851592   0.0000000000000000   0.0157499710824168
  -0.0054085400    0.0000162394   -0.0088757200
   0.0000579300   -0.0002554606   -0.0001470800
   0.0000471500    0.0002538194   -0.0001492400
   0.0000664900   -0.0002436906   -0.0001507100
   0.0000700600    0.0002465194   -0.0001456300
   0.0000633500    0.0000000194   -0.0000016900
   0.0000697700    0.0002610194   -0.0001495500
   0.0000629500    0.0000003194   -0.0000016900
   0.0000674500   -0.0002659906   -0.0001467800
   0.0000037900    0.0000023394    0.0000040900
  -0.0000055800    0.0000000694    0.0000203400
   0.0000036900   -0.0000021906    0.0000032200
   0.0000077600    0.0000002394    0.0000037200
   0.0000052300    0.0000067894    0.0000132300
   0.0000051300   -0.0000066306    0.0000134100
   0.0000059400    0.0000066994    0.0000203800
   0.0000057400   -0.0000065506    0.0000204600
  -0.0000064600   -0.0000000006    0.0000133800
   0.0000172200    0.0000000194   -0.0001942200
   0.0000088800    0.0000123594   -0.0001270700
  -0.0000005200    0.0000066894   -0.0001323300
  -0.0000049100   -0.0000029406   -0.0001267500
   0.0000161200    0.0000014794   -0.0001326900
  -0.0000065600   -0.0000001206   -0.0001502700
  -0.0000052700   -0.0000080106   -0.0001241300
  -0.0000015100   -0.0000001806   -0.0001457300
   0.0000062600   -0.0000098006   -0.0001352800
   0.0021912500   -0.0011193206    0.0025915100
   0.0000222600    0.0000029294    0.0001855500
  -0.0000009500   -0.0001474506    0.0007281200
   0.0002535900    0.0012592594    0.0016514200
   0.0000642400    0.0000918394    0.0002561600
  -0.0000093000   -0.0000490606    0.0001686600
   0.0000137000   -0.0000049406    0.0001801000
   0.0000182600    0.0000021794    0.0001903300
  -0.0000945200   -0.0000420306    0.0002121300
  -0.0000042400    0.0001501494    0.0004856900
   0.0000208200   -0.0000030206   -0.0000568100
   0.0021014200    0.0010646994    0.0022533000
   0.0002566700   -0.0012216206    0.0013773300
  -0.0000100300    0.0000494194   -0.0000734700
   0.0000603600   -0.0000897906    0.0000135800
   0.0000180400   -0.0000016106   -0.0000501000
   0.0000123200    0.0000047894   -0.0000629000
  -0.0000953500    0.0000410594   -0.0000297200
   0.0000169000    0.0000000894    0.0000460400
  -0.0000008400   -0.0000068106    0.0001090400
   0.0000094700   -0.0000124206    0.0001146300
   0.0000167800   -0.0000020106    0.0001088300
  -0.0000053700    0.0000025594    0.0001145800
  -0.0000065600   -0.0000001506    0.0000912600
   0.0000064700    0.0000101494    0.0001061200
  -0.0000016100   -0.0000001806    0.0000955100
  -0.0000053400    0.0000082394    0.0001174400

19   
  0.0123263299851592   0.0000000000000000   0.0157499710824168
   0.0000169498   -0.0000000896   -0.0000543902
   0.0000006598   -0.0000096196    0.0000067798
   0.0000073598   -0.0000034396    0.0000143298
   0.0000077198    0.0000008204    0.0000060998
  -0.0000067702   -0.0000004996    0.0000152098
  -0.0000016602   -0.0000001296   -0.0000053902
   0.0000094498    0.0000042204    0.0000022398
  -0.0000066302   -0.0000000796   -0.0000096802
   0.0000015498    0.0000079404    0.0000188698
   0.0022804498   -0.0011695496    0.0023866498
   0.0000216198    0.0000082604    0.0000443798
  -0.0000855402   -0.0001971296    0.0006500798
   0.0002553998    0.0013563104    0.0015080098
   0.0000818998    0.0001030604    0.0001001098
  -0.0000296902   -0.0000380996    0.0000423998
   0.0000081998   -0.0000075496    0.0000425098
   0.0000227998   -0.0000004896    0.0000462298
  -0.0000960802   -0.0000638696    0.0000710298
  -0.0030747202    0.0000113704   -0.0051972702
   0.0002190198    0.0000035204   -0.0002153202
   0.0002846098    0.0000166704   -0.0002672502
   0.0000522998   -0.0001616096   -0.0002614702
   0.0000349898    0.0000914704   -0.0002217902
  -0.0000041602   -0.0000003796   -0.0001360402
   0.0000178398   -0.0000888196   -0.0002355402
  -0.0000044002    0.0000000004   -0.0001358402
   0.0000697498    0.0001384904   -0.0002478902
  -0.0000680602    0.0000281004    0.0001676698
   0.0000012398   -0.0000042396    0.0001403098
   0.0001177998    0.0000788804    0.0003122098
  -0.0000190902   -0.0001072296    0.0002400998
  -0.0000062302    0.0000006004    0.0001248398
   0.0000067398   -0.0000078296    0.0001354898
   0.0000054498    0.0000025104    0.0001431498
  -0.0000018202    0.0000018304    0.0001370998
  -0.0000070302    0.0000075404    0.0001300898
  -0.0000014102    0.0000005204   -0.0000956002
  -0.0000039402   -0.0000000796   -0.0000990002
  -0.0000002502    0.0000000404   -0.0000968202
  -0.0000003902   -0.0000005796   -0.0000961302
   0.0000007598    0.0000021304   -0.0001017202
  -0.0000026202    0.0000001204   -0.0000994802
  -0.0000010402    0.0000018004   -0.0000990402
  -0.0000009902   -0.0000016396   -0.0000984602
  -0.0000026502   -0.0000018696   -0.0001004402
  -0.0000649302   -0.0000002096    0.0005503098
   0.0000703098    0.0000661904    0.0001534398
  -0.0000210002    0.0000176804    0.0000810198
  -0.0000861402    0.0000136304    0.0001278798
   0.0000325598    0.0000232704    0.0001065898
   0.0000113898   -0.0000002596    0.0000672798
  -0.0000398002   -0.0001151196    0.0001645298
   0.0000109498    0.0000000504    0.0000667898
  -0.0000127202   -0.0000066196    0.0000708398

19   
 -0.0123263299851592   0.0000000000000000  -0.0157499710824168
  -0.0000175198    0.0000000504    0.0000537606
  -0.0000004698    0.0000094404   -0.0000075894
  -0.0000080098    0.0000034804   -0.0000154194
  -0.0000081398   -0.0000005896   -0.0000069094
   0.0000067502    0.0000009104   -0.0000161994
   0.0000016102   -0.0000000796    0.0000046706
  -0.0000092198   -0.0000047196   -0.0000030294
   0.0000065502   -0.0000003896    0.0000092006
  -0.0000022298   -0.0000087796   -0.0000201394
  -0.0021827198    0.0011130204   -0.0022834894
  -0.0000214698   -0.0000082696   -0.0000434294
   0.0000905902    0.0001993704   -0.0006561594
  -0.0002547698   -0.0013219096   -0.0014796594
  -0.0000815998   -0.0001013396   -0.0000976394
   0.0000291702    0.0000378404   -0.0000427494
  -0.0000085398    0.0000074904   -0.0000411694
  -0.0000226598    0.0000007804   -0.0000456294
   0.0000943102    0.0000641904   -0.0000704494
   0.0029801902    0.0000109004    0.0047956506
  -0.0002162198   -0.0000037796   -0.0000683394
  -0.0002876098   -0.0000159696   -0.0000134094
  -0.0000524598    0.0001603904   -0.0000205294
  -0.0000361498   -0.0000916796   -0.0000615494
   0.0000047102   -0.0000001496   -0.0001458894
  -0.0000185198    0.0000891104   -0.0000482394
   0.0000044802   -0.0000001796   -0.0001458794
  -0.0000699398   -0.0001383996   -0.0000343094
   0.0000684602   -0.0000280096    0.0001157406
  -0.0000012298    0.0000042704    0.0001414606
  -0.0001196898   -0.0000807596   -0.0000324894
   0.0000200202    0.0001087504    0.0000417506
   0.0000067802    0.0000000404    0.0001560406
  -0.0000072898    0.0000084904    0.0001460606
  -0.0000054398   -0.0000026196    0.0001385006
   0.0000019702   -0.0000018796    0.0001440206
   0.0000069702   -0.0000082096    0.0001510406
   0.0000018402   -0.0000006596   -0.0001055294
   0.0000040602    0.0000003704   -0.0001016794
   0.0000000102   -0.0000002596   -0.0001043194
   0.0000005202    0.0000012604   -0.0001048894
  -0.0000002298   -0.0000014596   -0.0000982694
   0.0000022502    0.0000005404   -0.0001011094
   0.0000008102   -0.0000020196   -0.0001017894
   0.0000014602    0.0000014604   -0.0001014694
   0.0000025902    0.0000012604   -0.0000997394
   0.0000632302    0.0000000004   -0.0003447394
  -0.0000697198   -0.0000662196    0.0000476006
   0.0000217302   -0.0000174096    0.0001185806
   0.0000843402   -0.0000138496    0.0000726606
  -0.0000337098   -0.0000233796    0.0000933406
  -0.0000105098   -0.0000000096    0.0001335506
   0.0000392902    0.0001124104    0.0000377006
  -0.0000111098   -0.0000001896    0.0001332306
   0.0000124802    0.0000073404    0.0001292706
