
     Program PWSCF v.7.3 starts on  5Nov2024 at 17: 5:46 

     This program is part of the open-source Quantum ESPRESSO suite
     for quantum simulation of materials; please cite
         "P. Giannozzi et al., J. Phys.:Condens. Matter 21 395502 (2009);
         "P. Giannozzi et al., J. Phys.:Condens. Matter 29 465901 (2017);
         "P. Giannozzi et al., J. Chem. Phys. 152 154105 (2020);
          URL http://www.quantum-espresso.org", 
     in publications or presentations arising from this work. More details at
     http://www.quantum-espresso.org/quote

     Parallel version (MPI & OpenMP), running on     256 processor cores
     Number of MPI processes:               256
     Threads/MPI process:                     1

     MPI processes distributed on     1 nodes
     481498 MiB available memory on the printing compute node when the environment starts
 
     Waiting for input...
     Reading input from standard input
Warning: card &CELL ignored
Warning: card PRESS_CONV_THR=0.01 ignored
Warning: card / ignored

     Current dimensions of program PWSCF are:
     Max number of different atomic species (ntypx) = 10
     Max number of k-points (npk) =  40000
     Max angular momentum in pseudopotentials (lmaxx) =  4
     Message from routine setup:
     using ibrav=0 with symmetry is DISCOURAGED, use correct ibrav instead
     Message from routine setup:
     Dynamics, you should have no symmetries
 
     K-points division:     npool     =       4
     R & G space division:  proc/nbgrp/npool/nimage =      64
     Subspace diagonalization in iterative solution of the eigenvalue problem:
     a serial algorithm will be used

 
     Parallelization info
     --------------------
     sticks:   dense  smooth     PW     G-vecs:    dense   smooth      PW
     Min          12      12      3                 1124     1124     173
     Max          13      13      4                 1149     1149     200
     Sum         823     823    253                73015    73015   12085
 
     Using Pencil Decomposition
 


     bravais-lattice index     =            0
     lattice parameter (alat)  =       6.1057  a.u.
     unit-cell volume          =     755.6102 (a.u.)^3
     number of atoms/cell      =            6
     number of atomic types    =            2
     number of electrons       =        92.00
     number of Kohn-Sham states=           46
     kinetic-energy cutoff     =      80.0000  Ry
     charge density cutoff     =     320.0000  Ry
     scf convergence threshold =      1.0E-10
     mixing beta               =       0.5000
     number of iterations used =            8  plain     mixing
     energy convergence thresh.=      1.0E-04
     force convergence thresh. =      1.0E-03
     Exchange-correlation= PBE
                           (   1   4   3   4   0   0   0)
     nstep                     =           50


     celldm(1)=   6.105670  celldm(2)=   0.000000  celldm(3)=   0.000000
     celldm(4)=   0.000000  celldm(5)=   0.000000  celldm(6)=   0.000000

     crystal axes: (cart. coord. in units of alat)
               a(1) = (   1.000000   0.000000   0.000000 )  
               a(2) = (  -0.500000   0.866025   0.000000 )  
               a(3) = (   0.000000   0.000000   3.833251 )  

     reciprocal axes: (cart. coord. in units 2 pi/alat)
               b(1) = (  1.000000  0.577350  0.000000 )  
               b(2) = (  0.000000  1.154701  0.000000 )  
               b(3) = (  0.000000  0.000000  0.260875 )  


     PseudoPot. # 1 for W  read from file:
     /users/rkarkee/pbe_pseudo/W.upf
     MD5 check sum: cb94e439a9e4ea809831d6e90c63864e
     Pseudo is Norm-conserving + core correction, Zval = 14.0
     Generated using ONCVPSP code by D. R. Hamann
     Using radial grid of 1396 points,  8 beta functions with: 
                l(1) =   0
                l(2) =   0
                l(3) =   1
                l(4) =   1
                l(5) =   2
                l(6) =   2
                l(7) =   3
                l(8) =   3

     PseudoPot. # 2 for Se read from file:
     /users/rkarkee/pbe_pseudo/Se.upf
     MD5 check sum: 3cc46b3642295b3f4fdae63b742ce36d
     Pseudo is Norm-conserving + core correction, Zval = 16.0
     Generated using ONCVPSP code by D. R. Hamann
     Using radial grid of 1214 points,  6 beta functions with: 
                l(1) =   0
                l(2) =   0
                l(3) =   1
                l(4) =   1
                l(5) =   2
                l(6) =   2

     atomic species   valence    mass     pseudopotential
     W                14.00   183.84000     W ( 1.00)
     Se               16.00    78.96000     Se( 1.00)

     24 Sym. Ops., with inversion, found (12 have fractional translation)



   Cartesian axes

     site n.     atom                  positions (alat units)
         1        W      tau(   1) = (  -0.0000000   0.5773503   2.8749380  )
         2        W      tau(   2) = (   0.5000000   0.2886751   0.9583127  )
         3        Se     tau(   3) = (  -0.0000000   0.5773503   0.4585723  )
         4        Se     tau(   4) = (   0.5000000   0.2886751   3.3746785  )
         5        Se     tau(   5) = (   0.5000000   0.2886751   2.3751976  )
         6        Se     tau(   6) = (  -0.0000000   0.5773503   1.4580531  )

     -------------------------------------------------
     Parameters for Dispersion (Grimme-D2) Correction:
     -------------------------------------------------
       atom      VdW radius       C_6     

        W          3.349       2818.308
        Se         3.347        438.498

     number of k points=    12
                       cart. coord. in units 2pi/alat
        k(    1) = (   0.0833333   0.1443376   0.0652188), wk =   0.1111111
        k(    2) = (   0.0833333   0.3367877   0.0652188), wk =   0.2222222
        k(    3) = (   0.0833333   0.5292377   0.0652188), wk =   0.2222222
        k(    4) = (   0.0833333  -0.4330127   0.0652188), wk =   0.2222222
        k(    5) = (   0.0833333  -0.2405626   0.0652188), wk =   0.2222222
        k(    6) = (   0.0833333  -0.0481125   0.0652188), wk =   0.1111111
        k(    7) = (   0.2500000   0.4330127   0.0652188), wk =   0.1111111
        k(    8) = (   0.2500000   0.6254628   0.0652188), wk =   0.2222222
        k(    9) = (   0.2500000  -0.3367877   0.0652188), wk =   0.2222222
        k(   10) = (   0.2500000  -0.1443376   0.0652188), wk =   0.1111111
        k(   11) = (   0.4166667   0.7216878   0.0652188), wk =   0.1111111
        k(   12) = (   0.4166667  -0.2405626   0.0652188), wk =   0.1111111

     Dense  grid:    73015 G-vectors     FFT dimensions: (  36,  36, 144)

     Estimated max dynamical RAM per process >       9.25 MB

     Estimated total dynamical RAM >       2.26 GB

     Initial potential from superposition of free atoms

     starting charge      91.9987, renormalised to      92.0000
     Starting wfcs are   56 randomized atomic wfcs

     total cpu time spent up to now is        2.5 secs

     Self-consistent Calculation

     iteration #  1     ecut=    80.00 Ry     beta= 0.50
     Davidson diagonalization with overlap
     ethr =  1.00E-02,  avg # of iterations =  2.0

     Threshold (ethr) on eigenvalues was too large:
     Diagonalizing with lowered threshold

     Davidson diagonalization with overlap
     ethr =  1.08E-04,  avg # of iterations =  4.2

     total cpu time spent up to now is        3.5 secs

     total energy              =   -1273.68003201 Ry
     estimated scf accuracy    <       0.16252257 Ry

     iteration #  2     ecut=    80.00 Ry     beta= 0.50
     Davidson diagonalization with overlap
     ethr =  1.77E-04,  avg # of iterations =  4.7

     total cpu time spent up to now is        3.8 secs

     total energy              =   -1273.68677805 Ry
     estimated scf accuracy    <       0.16403172 Ry

     iteration #  3     ecut=    80.00 Ry     beta= 0.50
     Davidson diagonalization with overlap
     ethr =  1.77E-04,  avg # of iterations =  4.4

     total cpu time spent up to now is        4.1 secs

     total energy              =   -1273.71924463 Ry
     estimated scf accuracy    <       0.00863012 Ry

     iteration #  4     ecut=    80.00 Ry     beta= 0.50
     Davidson diagonalization with overlap
     ethr =  9.38E-06,  avg # of iterations =  5.0

     total cpu time spent up to now is        4.4 secs

     total energy              =   -1273.71781687 Ry
     estimated scf accuracy    <       0.00760019 Ry

     iteration #  5     ecut=    80.00 Ry     beta= 0.50
     Davidson diagonalization with overlap
     ethr =  8.26E-06,  avg # of iterations =  5.7

     total cpu time spent up to now is        4.8 secs

     total energy              =   -1273.71994552 Ry
     estimated scf accuracy    <       0.00815482 Ry

     iteration #  6     ecut=    80.00 Ry     beta= 0.50
     Davidson diagonalization with overlap
     ethr =  8.26E-06,  avg # of iterations =  2.6

     total cpu time spent up to now is        5.1 secs

     total energy              =   -1273.72014109 Ry
     estimated scf accuracy    <       0.00091754 Ry

     iteration #  7     ecut=    80.00 Ry     beta= 0.50
     Davidson diagonalization with overlap
     ethr =  9.97E-07,  avg # of iterations =  7.4

     total cpu time spent up to now is        5.5 secs

     total energy              =   -1273.72060819 Ry
     estimated scf accuracy    <       0.00387548 Ry

     iteration #  8     ecut=    80.00 Ry     beta= 0.50
     Davidson diagonalization with overlap
     ethr =  9.97E-07,  avg # of iterations =  5.0

     total cpu time spent up to now is        5.8 secs

     total energy              =   -1273.72072568 Ry
     estimated scf accuracy    <       0.00050674 Ry

     iteration #  9     ecut=    80.00 Ry     beta= 0.50
     Davidson diagonalization with overlap
     ethr =  5.51E-07,  avg # of iterations =  4.5

     total cpu time spent up to now is        6.1 secs

     total energy              =   -1273.72081839 Ry
     estimated scf accuracy    <       0.00000096 Ry

     iteration # 10     ecut=    80.00 Ry     beta= 0.50
     Davidson diagonalization with overlap
     ethr =  1.04E-09,  avg # of iterations = 10.8

     total cpu time spent up to now is        6.6 secs

     total energy              =   -1273.72082588 Ry
     estimated scf accuracy    <       0.00001256 Ry

     iteration # 11     ecut=    80.00 Ry     beta= 0.50
     Davidson diagonalization with overlap
     ethr =  1.04E-09,  avg # of iterations =  5.2

     total cpu time spent up to now is        7.0 secs

     total energy              =   -1273.72082515 Ry
     estimated scf accuracy    <       0.00000315 Ry

     iteration # 12     ecut=    80.00 Ry     beta= 0.50
     Davidson diagonalization with overlap
     ethr =  1.04E-09,  avg # of iterations =  5.5

     total cpu time spent up to now is        7.3 secs

     total energy              =   -1273.72082599 Ry
     estimated scf accuracy    <       0.00000036 Ry

     iteration # 13     ecut=    80.00 Ry     beta= 0.50
     Davidson diagonalization with overlap
     ethr =  3.91E-10,  avg # of iterations =  1.0

     total cpu time spent up to now is        7.6 secs

     total energy              =   -1273.72082591 Ry
     estimated scf accuracy    <       0.00000036 Ry

     iteration # 14     ecut=    80.00 Ry     beta= 0.50
     Davidson diagonalization with overlap
     ethr =  3.91E-10,  avg # of iterations =  2.0

     total cpu time spent up to now is        7.8 secs

     total energy              =   -1273.72082591 Ry
     estimated scf accuracy    <       0.00000010 Ry

     iteration # 15     ecut=    80.00 Ry     beta= 0.50
     Davidson diagonalization with overlap
     ethr =  1.06E-10,  avg # of iterations =  3.0

     total cpu time spent up to now is        8.1 secs

     total energy              =   -1273.72082591 Ry
     estimated scf accuracy    <       0.00000003 Ry

     iteration # 16     ecut=    80.00 Ry     beta= 0.50
     Davidson diagonalization with overlap
     ethr =  3.50E-11,  avg # of iterations =  5.2

     total cpu time spent up to now is        8.4 secs

     total energy              =   -1273.72082592 Ry
     estimated scf accuracy    <          9.6E-09 Ry

     iteration # 17     ecut=    80.00 Ry     beta= 0.50
     Davidson diagonalization with overlap
     ethr =  1.04E-11,  avg # of iterations =  1.3

     total cpu time spent up to now is        8.7 secs

     total energy              =   -1273.72082592 Ry
     estimated scf accuracy    <          6.2E-09 Ry

     iteration # 18     ecut=    80.00 Ry     beta= 0.50
     Davidson diagonalization with overlap
     ethr =  6.70E-12,  avg # of iterations =  5.3

     total cpu time spent up to now is        9.0 secs

     total energy              =   -1273.72082592 Ry
     estimated scf accuracy    <          2.0E-09 Ry

     iteration # 19     ecut=    80.00 Ry     beta= 0.50
     Davidson diagonalization with overlap
     ethr =  2.23E-12,  avg # of iterations =  1.8

     total cpu time spent up to now is        9.2 secs

     total energy              =   -1273.72082592 Ry
     estimated scf accuracy    <          1.2E-09 Ry

     iteration # 20     ecut=    80.00 Ry     beta= 0.50
     Davidson diagonalization with overlap
     ethr =  1.34E-12,  avg # of iterations =  4.7

     total cpu time spent up to now is        9.5 secs

     End of self-consistent calculation

          k = 0.0833 0.1443 0.0652 (  9141 PWs)   bands (ev):

   -59.2795 -59.2795 -33.0783 -33.0782 -33.0778 -33.0777 -33.0775 -33.0774
   -33.0765 -33.0765 -33.0373 -33.0372 -33.0368 -33.0368 -33.0357 -33.0354
   -33.0352 -33.0348 -33.0194 -33.0192 -33.0158 -33.0156 -23.5905 -23.5905
   -23.4900 -23.4900 -23.4469 -23.4469  -0.5123  -0.2863   0.7792   1.1597
     7.8570   8.7913  11.0629  11.1036  11.1057  12.1131  12.2396  12.2623
    12.5294  12.6197  13.2792  13.6041  14.4029  14.5176

          k = 0.0833 0.3368 0.0652 (  9132 PWs)   bands (ev):

   -59.2731 -59.2731 -33.0784 -33.0783 -33.0775 -33.0774 -33.0748 -33.0748
   -33.0741 -33.0740 -33.0381 -33.0377 -33.0374 -33.0372 -33.0370 -33.0369
   -33.0355 -33.0351 -33.0182 -33.0180 -33.0144 -33.0142 -23.6237 -23.6237
   -23.5596 -23.5595 -23.4848 -23.4848   0.4609   0.6597   1.2699   1.5389
     8.6554   9.1656   9.5836   9.7881  10.4408  10.4878  11.3853  11.6340
    12.6116  12.6597  12.9113  13.2322  13.5905  13.6191

          k = 0.0833 0.5292 0.0652 (  9140 PWs)   bands (ev):

   -59.2684 -59.2684 -33.0788 -33.0787 -33.0770 -33.0769 -33.0729 -33.0729
   -33.0723 -33.0723 -33.0387 -33.0386 -33.0382 -33.0382 -33.0373 -33.0370
   -33.0358 -33.0353 -33.0173 -33.0172 -33.0134 -33.0132 -23.7194 -23.7194
   -23.5368 -23.5368 -23.5125 -23.5124   1.4335   1.5395   1.7367   1.8392
     7.8180   8.0855   9.0089   9.0971   9.8502  10.4488  11.1837  11.2590
    12.3071  12.5120  12.7170  12.8644  13.8014  14.0114

          k = 0.0833-0.4330 0.0652 (  9130 PWs)   bands (ev):

   -59.2702 -59.2701 -33.0786 -33.0786 -33.0772 -33.0771 -33.0736 -33.0736
   -33.0730 -33.0729 -33.0385 -33.0382 -33.0379 -33.0378 -33.0372 -33.0370
   -33.0357 -33.0352 -33.0176 -33.0175 -33.0138 -33.0136 -23.6846 -23.6846
   -23.5451 -23.5451 -23.5024 -23.5023   1.0323   1.1906   1.5495   1.7333
     8.2672   8.5365   9.3390   9.4203   9.9044  10.4569  11.2068  11.3960
    12.4790  12.4946  12.7358  12.9000  13.6945  13.7668

          k = 0.0833-0.2406 0.0652 (  9146 PWs)   bands (ev):

   -59.2765 -59.2765 -33.0781 -33.0780 -33.0779 -33.0778 -33.0762 -33.0762
   -33.0754 -33.0753 -33.0377 -33.0373 -33.0371 -33.0369 -33.0364 -33.0362
   -33.0354 -33.0349 -33.0189 -33.0186 -33.0152 -33.0150 -23.5762 -23.5761
   -23.5525 -23.5525 -23.4645 -23.4645  -0.0919   0.1267   0.9924   1.3282
     8.3100   9.1737  10.2698  10.3456  10.7630  11.3692  11.8510  12.0205
    12.5276  12.5666  13.1983  13.5588  13.8943  13.9274

          k = 0.0833-0.0481 0.0652 (  9128 PWs)   bands (ev):

   -59.2812 -59.2812 -33.0785 -33.0784 -33.0782 -33.0781 -33.0776 -33.0776
   -33.0772 -33.0771 -33.0371 -33.0371 -33.0367 -33.0367 -33.0353 -33.0351
   -33.0349 -33.0347 -33.0198 -33.0195 -33.0162 -33.0159 -23.5988 -23.5987
   -23.4531 -23.4531 -23.4373 -23.4373  -0.7372  -0.5091   0.6650   1.0678
     7.5947   8.5470  11.3336  11.6027  11.6301  12.0417  12.0644  12.6025
    13.0011  13.0621  13.2356  13.4907  14.5950  14.9310

          k = 0.2500 0.4330 0.0652 (  9109 PWs)   bands (ev):

   -59.2684 -59.2684 -33.0775 -33.0775 -33.0760 -33.0759 -33.0738 -33.0737
   -33.0736 -33.0735 -33.0394 -33.0388 -33.0380 -33.0379 -33.0366 -33.0365
   -33.0363 -33.0357 -33.0173 -33.0173 -33.0134 -33.0133 -23.6758 -23.6758
   -23.5573 -23.5573 -23.5368 -23.5368   1.3898   1.5106   1.7370   1.8683
     8.5718   8.6813   9.1313   9.2821  10.1464  10.1762  10.7401  10.9961
    11.3044  11.3852  12.5507  12.8487  13.9192  14.0530

          k = 0.2500 0.6255 0.0652 (  9110 PWs)   bands (ev):

   -59.2672 -59.2672 -33.0771 -33.0771 -33.0754 -33.0753 -33.0737 -33.0737
   -33.0736 -33.0736 -33.0397 -33.0391 -33.0380 -33.0379 -33.0365 -33.0364
   -33.0363 -33.0360 -33.0171 -33.0171 -33.0131 -33.0131 -23.6798 -23.6798
   -23.5866 -23.5866 -23.5307 -23.5307   1.7074   1.7708   1.8888   1.9508
     8.5348   8.6609   8.7766   8.9238  10.0610  10.2532  10.5024  10.7147
    11.1775  11.3311  12.2762  12.5794  14.1732  14.3979

          k = 0.2500-0.3368 0.0652 (  9121 PWs)   bands (ev):

   -59.2706 -59.2706 -33.0780 -33.0780 -33.0768 -33.0767 -33.0741 -33.0741
   -33.0737 -33.0736 -33.0388 -33.0383 -33.0378 -33.0376 -33.0368 -33.0367
   -33.0359 -33.0354 -33.0177 -33.0176 -33.0139 -33.0137 -23.6573 -23.6573
   -23.5474 -23.5474 -23.5180 -23.5180   0.9250   1.0948   1.5039   1.7104
     8.6592   8.8925   9.5841   9.6829   9.9574  10.2663  10.8636  11.3226
    11.8704  11.9855  12.9334  13.0726  13.7691  13.8238

          k = 0.2500-0.1443 0.0652 (  9144 PWs)   bands (ev):

   -59.2753 -59.2753 -33.0783 -33.0782 -33.0779 -33.0778 -33.0756 -33.0756
   -33.0748 -33.0747 -33.0376 -33.0374 -33.0372 -33.0371 -33.0368 -33.0365
   -33.0354 -33.0349 -33.0186 -33.0184 -33.0149 -33.0147 -23.5834 -23.5834
   -23.5701 -23.5701 -23.4671 -23.4671   0.1016   0.3146   1.0893   1.4024
     8.4588   9.2145   9.9189  10.0524  10.5658  10.9474  12.0408  12.1238
    12.6917  12.7724  12.8527  13.2695  13.6076  13.6639

          k = 0.4167 0.7217 0.0652 (  9131 PWs)   bands (ev):

   -59.2676 -59.2676 -33.0780 -33.0780 -33.0762 -33.0762 -33.0731 -33.0731
   -33.0729 -33.0728 -33.0393 -33.0388 -33.0383 -33.0381 -33.0368 -33.0366
   -33.0362 -33.0356 -33.0172 -33.0171 -33.0132 -33.0131 -23.7062 -23.7061
   -23.5475 -23.5475 -23.5329 -23.5329   1.6115   1.6900   1.8322   1.9043
     8.0652   8.3017   8.9095   8.9522   9.9079  10.3705  10.9768  11.1629
    11.6098  11.8927  12.2656  12.6308  14.0012  14.2600

          k = 0.4167-0.2406 0.0652 (  9141 PWs)   bands (ev):

   -59.2694 -59.2693 -33.0790 -33.0789 -33.0773 -33.0772 -33.0731 -33.0730
   -33.0724 -33.0723 -33.0384 -33.0382 -33.0381 -33.0377 -33.0376 -33.0374
   -33.0356 -33.0351 -33.0175 -33.0174 -33.0136 -33.0134 -23.7108 -23.7108
   -23.5413 -23.5412 -23.4967 -23.4967   1.2194   1.3551   1.6330   1.7780
     7.9093   8.1837   9.1261   9.2538   9.8602  10.4709  11.3510  11.4457
    12.2691  12.5863  13.2435  13.4185  13.4845  13.6293

     highest occupied level (ev):    14.9310

!    total energy              =   -1273.72082592 Ry
     estimated scf accuracy    <          1.4E-12 Ry

     convergence has been achieved in  20 iterations

     Forces acting on atoms (cartesian axes, Ry/au):

     atom    1 type  1   force =     0.00000000    0.00000000    0.00000000
     atom    2 type  1   force =     0.00000000    0.00000000    0.00000000
     atom    3 type  2   force =     0.00000000    0.00000000   -0.06222061
     atom    4 type  2   force =    -0.00000000   -0.00000000    0.06222061
     atom    5 type  2   force =     0.00000000    0.00000000   -0.06222061
     atom    6 type  2   force =     0.00000000   -0.00000000    0.06222061

     Total force =     0.124441     Total SCF correction =     0.000005


     Computing stress (Cartesian axis) and pressure

          total   stress  (Ry/bohr**3)                   (kbar)     P=      141.16
   0.00087442  -0.00000000   0.00000000          128.63       -0.00        0.00
  -0.00000000   0.00087442   0.00000000           -0.00      128.63        0.00
   0.00000000  -0.00000000   0.00112983            0.00       -0.00      166.20


     Minimization using the FIRE algorithm

     FIRE input parameters:

      fire_nmin =  5 fire_f_inc = 1.10 fire_f_dec = 0.50 fire_alpha = 0.20 fire_falpha = 0.99 dtmax = 200.0

     Entering FIRE :       iteration =     1

     FIRE Parameters: P = 0.00000000, dt = 20.00, alpha = 0.200 nsteppos =   1 at step  1


ATOMIC_POSITIONS (crystal)
W                0.3333333430        0.6666666870        0.7500000000
W                0.6666666270        0.3333333130        0.2500000000
Se               0.3333333430        0.6666666870        0.1184634181
Se               0.6666666270        0.3333333130        0.8815365889
Se               0.6666666270        0.3333333130        0.6184634111
Se               0.3333333430        0.6666666870        0.3815365889



     Writing config-only to output data dir ./WSe.save/ :
     XML data file
     NEW-OLD atomic charge density approx. for the potential

     total cpu time spent up to now is       11.7 secs

     Self-consistent Calculation

     iteration #  1     ecut=    80.00 Ry     beta= 0.50
     Davidson diagonalization with overlap
     ethr =  1.00E-06,  avg # of iterations =  7.3

     total cpu time spent up to now is       12.7 secs

     total energy              =   -1273.72688392 Ry
     estimated scf accuracy    <       0.00010926 Ry

     iteration #  2     ecut=    80.00 Ry     beta= 0.50
     Davidson diagonalization with overlap
     ethr =  1.19E-07,  avg # of iterations =  4.8

     total cpu time spent up to now is       13.1 secs

     total energy              =   -1273.72689960 Ry
     estimated scf accuracy    <       0.00004260 Ry

     iteration #  3     ecut=    80.00 Ry     beta= 0.50
     Davidson diagonalization with overlap
     ethr =  4.63E-08,  avg # of iterations =  5.5

     total cpu time spent up to now is       13.5 secs

     total energy              =   -1273.72690917 Ry
     estimated scf accuracy    <       0.00002627 Ry

     iteration #  4     ecut=    80.00 Ry     beta= 0.50
     Davidson diagonalization with overlap
     ethr =  2.85E-08,  avg # of iterations =  3.8

     total cpu time spent up to now is       13.9 secs

     total energy              =   -1273.72691300 Ry
     estimated scf accuracy    <       0.00000063 Ry

     iteration #  5     ecut=    80.00 Ry     beta= 0.50
     Davidson diagonalization with overlap
     ethr =  6.82E-10,  avg # of iterations =  7.8

     total cpu time spent up to now is       14.3 secs

     total energy              =   -1273.72691320 Ry
     estimated scf accuracy    <       0.00000232 Ry

     iteration #  6     ecut=    80.00 Ry     beta= 0.50
     Davidson diagonalization with overlap
     ethr =  6.82E-10,  avg # of iterations =  5.9

     total cpu time spent up to now is       14.8 secs

     total energy              =   -1273.72691362 Ry
     estimated scf accuracy    <       0.00000005 Ry

     iteration #  7     ecut=    80.00 Ry     beta= 0.50
     Davidson diagonalization with overlap
     ethr =  5.19E-11,  avg # of iterations =  4.6

     total cpu time spent up to now is       15.1 secs

     total energy              =   -1273.72691362 Ry
     estimated scf accuracy    <          2.4E-09 Ry

     iteration #  8     ecut=    80.00 Ry     beta= 0.50
     Davidson diagonalization with overlap
     ethr =  2.66E-12,  avg # of iterations =  5.5

     total cpu time spent up to now is       15.6 secs

     End of self-consistent calculation

          k = 0.0833 0.1443 0.0652 (  9141 PWs)   bands (ev):

   -59.2867 -59.2867 -33.0679 -33.0678 -33.0675 -33.0674 -33.0671 -33.0670
   -33.0662 -33.0661 -33.0291 -33.0290 -33.0286 -33.0286 -33.0277 -33.0274
   -33.0272 -33.0268 -33.0124 -33.0121 -33.0092 -33.0089 -23.5908 -23.5907
   -23.4857 -23.4857 -23.4432 -23.4432  -0.4700  -0.2284   0.7748   1.1744
     7.8690   8.8290  11.0893  11.1503  11.1856  12.1599  12.3231  12.3471
    12.5891  12.6831  13.3069  13.5893  14.3868  14.4971

          k = 0.0833 0.3368 0.0652 (  9132 PWs)   bands (ev):

   -59.2803 -59.2803 -33.0680 -33.0679 -33.0672 -33.0671 -33.0645 -33.0644
   -33.0638 -33.0637 -33.0299 -33.0295 -33.0294 -33.0292 -33.0289 -33.0287
   -33.0276 -33.0270 -33.0112 -33.0110 -33.0078 -33.0076 -23.6179 -23.6179
   -23.5605 -23.5605 -23.4807 -23.4807   0.5005   0.7115   1.2814   1.5638
     8.6929   9.2293   9.6066   9.8084  10.4856  10.5285  11.4281  11.6896
    12.6503  12.7032  12.9097  13.2145  13.6184  13.6414

          k = 0.0833 0.5292 0.0652 (  9140 PWs)   bands (ev):

   -59.2757 -59.2757 -33.0684 -33.0683 -33.0667 -33.0666 -33.0625 -33.0625
   -33.0620 -33.0620 -33.0305 -33.0305 -33.0302 -33.0299 -33.0292 -33.0289
   -33.0278 -33.0272 -33.0103 -33.0102 -33.0067 -33.0066 -23.7125 -23.7125
   -23.5382 -23.5382 -23.5082 -23.5082   1.4770   1.5872   1.7656   1.8712
     7.8509   8.1321   9.0188   9.1103   9.8795  10.4994  11.2340  11.3126
    12.2743  12.4995  12.7296  12.8941  13.8209  14.0415

          k = 0.0833-0.4330 0.0652 (  9130 PWs)   bands (ev):

   -59.2774 -59.2774 -33.0682 -33.0682 -33.0669 -33.0668 -33.0633 -33.0632
   -33.0627 -33.0626 -33.0303 -33.0301 -33.0298 -33.0297 -33.0291 -33.0288
   -33.0277 -33.0272 -33.0106 -33.0105 -33.0071 -33.0069 -23.6781 -23.6781
   -23.5464 -23.5464 -23.4982 -23.4981   1.0729   1.2394   1.5715   1.7632
     8.3111   8.5936   9.3488   9.4307   9.9339  10.5047  11.2505  11.4513
    12.4790  12.4953  12.7596  12.8955  13.7238  13.8026

          k = 0.0833-0.2406 0.0652 (  9146 PWs)   bands (ev):

   -59.2837 -59.2837 -33.0677 -33.0677 -33.0676 -33.0675 -33.0659 -33.0658
   -33.0651 -33.0650 -33.0295 -33.0292 -33.0289 -33.0288 -33.0284 -33.0281
   -33.0274 -33.0269 -33.0118 -33.0116 -33.0085 -33.0083 -23.5767 -23.5767
   -23.5475 -23.5475 -23.4606 -23.4606  -0.0512   0.1819   0.9946   1.3474
     8.3266   9.2123  10.3336  10.4125  10.7820  11.4161  11.9022  12.0772
    12.6015  12.6423  13.2045  13.5440  13.8903  13.9152

          k = 0.0833-0.0481 0.0652 (  9128 PWs)   bands (ev):

   -59.2884 -59.2884 -33.0681 -33.0680 -33.0678 -33.0677 -33.0673 -33.0672
   -33.0669 -33.0668 -33.0289 -33.0289 -33.0285 -33.0285 -33.0273 -33.0272
   -33.0269 -33.0267 -33.0127 -33.0124 -33.0095 -33.0092 -23.5989 -23.5988
   -23.4492 -23.4492 -23.4336 -23.4336  -0.6936  -0.4497   0.6572   1.0802
     7.6054   8.5849  11.3055  11.6876  11.7170  12.1284  12.1529  12.6421
    13.0641  13.1294  13.2844  13.4837  14.5817  14.9052

          k = 0.2500 0.4330 0.0652 (  9109 PWs)   bands (ev):

   -59.2757 -59.2757 -33.0671 -33.0671 -33.0657 -33.0656 -33.0634 -33.0634
   -33.0633 -33.0632 -33.0311 -33.0306 -33.0299 -33.0298 -33.0285 -33.0284
   -33.0283 -33.0277 -33.0103 -33.0102 -33.0067 -33.0066 -23.6693 -23.6693
   -23.5526 -23.5526 -23.5383 -23.5383   1.4315   1.5569   1.7650   1.9002
     8.6180   8.7258   9.1726   9.3322  10.1624  10.1833  10.7598  11.0247
    11.3319  11.4300  12.5178  12.8358  13.9396  14.0848

          k = 0.2500 0.6255 0.0652 (  9110 PWs)   bands (ev):

   -59.2744 -59.2744 -33.0667 -33.0666 -33.0651 -33.0650 -33.0634 -33.0634
   -33.0633 -33.0633 -33.0315 -33.0309 -33.0300 -33.0299 -33.0286 -33.0284
   -33.0283 -33.0279 -33.0101 -33.0100 -33.0065 -33.0064 -23.6732 -23.6732
   -23.5817 -23.5817 -23.5323 -23.5323   1.7527   1.8179   1.9199   1.9829
     8.5668   8.6986   8.8212   8.9770  10.0892  10.2834  10.5064  10.7290
    11.2058  11.3514  12.2534  12.5669  14.1888  14.4248

          k = 0.2500-0.3368 0.0652 (  9121 PWs)   bands (ev):

   -59.2778 -59.2778 -33.0677 -33.0676 -33.0665 -33.0664 -33.0638 -33.0638
   -33.0634 -33.0633 -33.0306 -33.0300 -33.0297 -33.0295 -33.0287 -33.0286
   -33.0279 -33.0274 -33.0107 -33.0106 -33.0072 -33.0071 -23.6511 -23.6511
   -23.5486 -23.5486 -23.5136 -23.5136   0.9649   1.1439   1.5236   1.7393
     8.7102   8.9517   9.5997   9.7034   9.9966  10.3040  10.8926  11.3635
    11.9020  12.0246  12.9048  13.0596  13.7935  13.8583

          k = 0.2500-0.1443 0.0652 (  9144 PWs)   bands (ev):

   -59.2825 -59.2825 -33.0679 -33.0679 -33.0675 -33.0675 -33.0652 -33.0652
   -33.0645 -33.0644 -33.0295 -33.0293 -33.0291 -33.0289 -33.0287 -33.0285
   -33.0274 -33.0269 -33.0116 -33.0114 -33.0083 -33.0080 -23.5781 -23.5781
   -23.5708 -23.5708 -23.4632 -23.4632   0.1418   0.3686   1.0947   1.4237
     8.4810   9.2588   9.9707  10.0986  10.6021  10.9883  12.1035  12.1923
    12.6737  12.8462  12.9332  13.2475  13.6022  13.6607

          k = 0.4167 0.7217 0.0652 (  9131 PWs)   bands (ev):

   -59.2749 -59.2749 -33.0676 -33.0675 -33.0659 -33.0659 -33.0628 -33.0628
   -33.0626 -33.0625 -33.0311 -33.0306 -33.0302 -33.0300 -33.0287 -33.0285
   -33.0282 -33.0276 -33.0101 -33.0101 -33.0066 -33.0065 -23.6994 -23.6993
   -23.5429 -23.5429 -23.5345 -23.5345   1.6563   1.7374   1.8627   1.9364
     8.0955   8.3439   8.9405   8.9825   9.9379  10.4116  11.0077  11.1850
    11.6269  11.9285  12.2357  12.6161  14.0173  14.2873

          k = 0.4167-0.2406 0.0652 (  9141 PWs)   bands (ev):

   -59.2766 -59.2766 -33.0686 -33.0685 -33.0670 -33.0669 -33.0627 -33.0627
   -33.0621 -33.0621 -33.0304 -33.0301 -33.0300 -33.0296 -33.0294 -33.0293
   -33.0277 -33.0271 -33.0104 -33.0103 -33.0069 -33.0068 -23.7040 -23.7040
   -23.5426 -23.5426 -23.4926 -23.4926   1.2613   1.4033   1.6586   1.8091
     7.9467   8.2353   9.1309   9.2607   9.8862  10.5207  11.4142  11.5157
    12.2347  12.5595  13.2496  13.4598  13.4974  13.6868

     highest occupied level (ev):    14.9052

!    total energy              =   -1273.72691363 Ry
     estimated scf accuracy    <          6.8E-11 Ry

     convergence has been achieved in   8 iterations

     Forces acting on atoms (cartesian axes, Ry/au):

     atom    1 type  1   force =     0.00000000   -0.00000000    0.00000000
     atom    2 type  1   force =    -0.00000000   -0.00000000    0.00000000
     atom    3 type  2   force =    -0.00000000   -0.00000000   -0.04932283
     atom    4 type  2   force =     0.00000000    0.00000000    0.04932283
     atom    5 type  2   force =    -0.00000000    0.00000000   -0.04932283
     atom    6 type  2   force =     0.00000000   -0.00000000    0.04932283

     Total force =     0.098646     Total SCF correction =     0.000035


     Computing stress (Cartesian axis) and pressure

          total   stress  (Ry/bohr**3)                   (kbar)     P=      125.28
   0.00079742  -0.00000000   0.00000000          117.30       -0.00        0.00
  -0.00000000   0.00079742   0.00000000           -0.00      117.30        0.00
   0.00000000   0.00000000   0.00096010            0.00        0.00      141.24


     Entering FIRE :       iteration =     2

     FIRE Parameters: P = 0.00004412, dt = 20.00, alpha = 0.200 nsteppos =   2 at step  2


ATOMIC_POSITIONS (crystal)
W                0.3333333430        0.6666666870        0.7500000000
W                0.6666666270        0.3333333130        0.2500000000
Se               0.3333333430        0.6666666870        0.1163718433
Se               0.6666666270        0.3333333130        0.8836281637
Se               0.6666666270        0.3333333130        0.6163718363
Se               0.3333333430        0.6666666870        0.3836281637



     Writing config-only to output data dir ./WSe.save/ :
     XML data file
     NEW-OLD atomic charge density approx. for the potential

     total cpu time spent up to now is       16.2 secs

     Self-consistent Calculation

     iteration #  1     ecut=    80.00 Ry     beta= 0.50
     Davidson diagonalization with overlap
     ethr =  1.00E-06,  avg # of iterations =  9.0

     total cpu time spent up to now is       17.3 secs

     total energy              =   -1273.73423689 Ry
     estimated scf accuracy    <       0.00049347 Ry

     iteration #  2     ecut=    80.00 Ry     beta= 0.50
     Davidson diagonalization with overlap
     ethr =  5.36E-07,  avg # of iterations =  5.2

     total cpu time spent up to now is       17.7 secs

     total energy              =   -1273.73424853 Ry
     estimated scf accuracy    <       0.00076860 Ry

     iteration #  3     ecut=    80.00 Ry     beta= 0.50
     Davidson diagonalization with overlap
     ethr =  5.36E-07,  avg # of iterations =  5.1

     total cpu time spent up to now is       18.1 secs

     total energy              =   -1273.73438972 Ry
     estimated scf accuracy    <       0.00002488 Ry

     iteration #  4     ecut=    80.00 Ry     beta= 0.50
     Davidson diagonalization with overlap
     ethr =  2.70E-08,  avg # of iterations =  4.7

     total cpu time spent up to now is       18.4 secs

     total energy              =   -1273.73439171 Ry
     estimated scf accuracy    <       0.00001599 Ry

     iteration #  5     ecut=    80.00 Ry     beta= 0.50
     Davidson diagonalization with overlap
     ethr =  1.74E-08,  avg # of iterations =  4.4

     total cpu time spent up to now is       18.8 secs

     total energy              =   -1273.73439460 Ry
     estimated scf accuracy    <       0.00000023 Ry

     iteration #  6     ecut=    80.00 Ry     beta= 0.50
     Davidson diagonalization with overlap
     ethr =  2.45E-10,  avg # of iterations =  7.3

     total cpu time spent up to now is       19.3 secs

     total energy              =   -1273.73439472 Ry
     estimated scf accuracy    <       0.00000060 Ry

     iteration #  7     ecut=    80.00 Ry     beta= 0.50
     Davidson diagonalization with overlap
     ethr =  2.45E-10,  avg # of iterations =  3.6

     total cpu time spent up to now is       19.7 secs

     total energy              =   -1273.73439471 Ry
     estimated scf accuracy    <       0.00000011 Ry

     iteration #  8     ecut=    80.00 Ry     beta= 0.50
     Davidson diagonalization with overlap
     ethr =  1.19E-10,  avg # of iterations =  5.7

     total cpu time spent up to now is       20.0 secs

     total energy              =   -1273.73439475 Ry
     estimated scf accuracy    <       0.00000013 Ry

     iteration #  9     ecut=    80.00 Ry     beta= 0.50
     Davidson diagonalization with overlap
     ethr =  1.19E-10,  avg # of iterations =  2.4

     total cpu time spent up to now is       20.4 secs

     total energy              =   -1273.73439476 Ry
     estimated scf accuracy    <       0.00000002 Ry

     iteration # 10     ecut=    80.00 Ry     beta= 0.50
     Davidson diagonalization with overlap
     ethr =  2.12E-11,  avg # of iterations =  3.3

     total cpu time spent up to now is       20.7 secs

     total energy              =   -1273.73439475 Ry
     estimated scf accuracy    <       0.00000001 Ry

     iteration # 11     ecut=    80.00 Ry     beta= 0.50
     Davidson diagonalization with overlap
     ethr =  1.33E-11,  avg # of iterations =  5.0

     total cpu time spent up to now is       21.1 secs

     total energy              =   -1273.73439476 Ry
     estimated scf accuracy    <          1.4E-10 Ry

     iteration # 12     ecut=    80.00 Ry     beta= 0.50
     Davidson diagonalization with overlap
     ethr =  1.49E-13,  avg # of iterations =  5.8

     total cpu time spent up to now is       21.5 secs

     End of self-consistent calculation

          k = 0.0833 0.1443 0.0652 (  9141 PWs)   bands (ev):

   -59.3006 -59.3005 -33.0508 -33.0507 -33.0505 -33.0504 -33.0499 -33.0499
   -33.0492 -33.0492 -33.0162 -33.0161 -33.0156 -33.0156 -33.0150 -33.0146
   -33.0145 -33.0140 -33.0015 -33.0012 -32.9988 -32.9985 -23.5926 -23.5925
   -23.4800 -23.4800 -23.4384 -23.4384  -0.4007  -0.1303   0.7684   1.2035
     7.8870   8.8916  11.0770  11.2850  11.3286  12.2427  12.4673  12.4935
    12.6947  12.7946  13.3619  13.5670  14.3603  14.4618

          k = 0.0833 0.3368 0.0652 (  9132 PWs)   bands (ev):

   -59.2943 -59.2943 -33.0509 -33.0508 -33.0502 -33.0501 -33.0474 -33.0473
   -33.0469 -33.0468 -33.0169 -33.0167 -33.0165 -33.0162 -33.0159 -33.0158
   -33.0148 -33.0142 -33.0002 -33.0000 -32.9974 -32.9972 -23.6095 -23.6095
   -23.5635 -23.5635 -23.4754 -23.4754   0.5652   0.7974   1.3044   1.6101
     8.7526   9.3333   9.6480   9.8469  10.5649  10.6025  11.5009  11.7880
    12.7079  12.7706  12.9204  13.1891  13.6683  13.6869

          k = 0.0833 0.5292 0.0652 (  9140 PWs)   bands (ev):

   -59.2897 -59.2897 -33.0513 -33.0511 -33.0498 -33.0497 -33.0455 -33.0455
   -33.0451 -33.0451 -33.0177 -33.0176 -33.0172 -33.0169 -33.0163 -33.0160
   -33.0151 -33.0144 -32.9993 -32.9992 -32.9964 -32.9962 -23.7024 -23.7023
   -23.5421 -23.5421 -23.5025 -23.5024   1.5488   1.6626   1.8214   1.9288
     7.9067   8.2139   9.0349   9.1317   9.9306  10.5896  11.3214  11.4083
    12.2205  12.4751  12.7570  12.9466  13.8520  14.0935

          k = 0.0833-0.4330 0.0652 (  9130 PWs)   bands (ev):

   -59.2914 -59.2914 -33.0511 -33.0510 -33.0499 -33.0498 -33.0462 -33.0462
   -33.0457 -33.0457 -33.0173 -33.0173 -33.0169 -33.0167 -33.0162 -33.0159
   -33.0150 -33.0144 -32.9996 -32.9995 -32.9968 -32.9966 -23.6686 -23.6686
   -23.5499 -23.5499 -23.4926 -23.4925   1.1394   1.3180   1.6144   1.8178
     8.3852   8.6932   9.3643   9.4465   9.9859  10.5904  11.3250  11.5498
    12.4574  12.5095  12.8025  12.9020  13.7720  13.8670

          k = 0.0833-0.2406 0.0652 (  9146 PWs)   bands (ev):

   -59.2976 -59.2976 -33.0507 -33.0506 -33.0505 -33.0504 -33.0488 -33.0487
   -33.0481 -33.0481 -33.0165 -33.0163 -33.0160 -33.0158 -33.0155 -33.0153
   -33.0147 -33.0141 -33.0009 -33.0006 -32.9982 -32.9979 -23.5791 -23.5791
   -23.5406 -23.5405 -23.4555 -23.4555   0.0152   0.2746   1.0002   1.3841
     8.3518   9.2734  10.4456  10.5288  10.8182  11.4997  11.9912  12.1766
    12.7284  12.7723  13.2223  13.5196  13.8855  13.8963

          k = 0.0833-0.0481 0.0652 (  9128 PWs)   bands (ev):

   -59.3022 -59.3022 -33.0510 -33.0509 -33.0507 -33.0506 -33.0503 -33.0502
   -33.0499 -33.0498 -33.0160 -33.0160 -33.0155 -33.0155 -33.0146 -33.0144
   -33.0141 -33.0139 -33.0018 -33.0015 -32.9992 -32.9989 -23.6004 -23.6003
   -23.4442 -23.4442 -23.4290 -23.4289  -0.6223  -0.3485   0.6447   1.1051
     7.6213   8.6488  11.2567  11.8347  11.8682  12.2786  12.3066  12.7061
    13.1748  13.2486  13.3739  13.4793  14.5620  14.8613

          k = 0.2500 0.4330 0.0652 (  9109 PWs)   bands (ev):

   -59.2897 -59.2897 -33.0500 -33.0499 -33.0487 -33.0487 -33.0464 -33.0464
   -33.0463 -33.0463 -33.0181 -33.0174 -33.0171 -33.0169 -33.0157 -33.0156
   -33.0155 -33.0149 -32.9994 -32.9993 -32.9964 -32.9963 -23.6598 -23.6598
   -23.5461 -23.5461 -23.5421 -23.5421   1.5002   1.6298   1.8199   1.9580
     8.6978   8.8014   9.2423   9.4186  10.1900  10.1936  10.7985  11.0745
    11.3822  11.5109  12.4638  12.8178  13.9715  14.1382

          k = 0.2500 0.6255 0.0652 (  9110 PWs)   bands (ev):

   -59.2885 -59.2884 -33.0495 -33.0495 -33.0481 -33.0481 -33.0464 -33.0464
   -33.0463 -33.0463 -33.0184 -33.0177 -33.0171 -33.0170 -33.0158 -33.0156
   -33.0155 -33.0151 -32.9991 -32.9991 -32.9961 -32.9961 -23.6635 -23.6635
   -23.5748 -23.5748 -23.5364 -23.5364   1.8281   1.8919   1.9800   2.0404
     8.6212   8.7637   8.8979   9.0697  10.1364  10.3303  10.5158  10.7545
    11.2574  11.3906  12.2200  12.5501  14.2119  14.4689

          k = 0.2500-0.3368 0.0652 (  9121 PWs)   bands (ev):

   -59.2918 -59.2918 -33.0506 -33.0505 -33.0495 -33.0495 -33.0468 -33.0467
   -33.0464 -33.0464 -33.0176 -33.0170 -33.0168 -33.0166 -33.0159 -33.0157
   -33.0151 -33.0145 -32.9998 -32.9996 -32.9969 -32.9967 -23.6421 -23.6421
   -23.5521 -23.5520 -23.5078 -23.5077   1.0300   1.2233   1.5622   1.7924
     8.7966   9.0533   9.6215   9.7359  10.0668  10.3729  10.9461  11.4386
    11.9562  12.0932  12.8560  13.0436  13.8335  13.9181

          k = 0.2500-0.1443 0.0652 (  9144 PWs)   bands (ev):

   -59.2964 -59.2964 -33.0509 -33.0508 -33.0505 -33.0504 -33.0482 -33.0481
   -33.0475 -33.0475 -33.0165 -33.0164 -33.0163 -33.0159 -33.0158 -33.0156
   -33.0147 -33.0141 -33.0006 -33.0004 -32.9979 -32.9977 -23.5734 -23.5734
   -23.5705 -23.5705 -23.4581 -23.4581   0.2073   0.4590   1.1063   1.4639
     8.5151   9.3270  10.0625  10.1807  10.6701  11.0616  12.2135  12.3139
    12.6459  12.9733  13.0736  13.2096  13.5936  13.6569

          k = 0.4167 0.7217 0.0652 (  9131 PWs)   bands (ev):

   -59.2889 -59.2889 -33.0505 -33.0504 -33.0490 -33.0489 -33.0458 -33.0458
   -33.0456 -33.0456 -33.0181 -33.0176 -33.0172 -33.0171 -33.0159 -33.0157
   -33.0154 -33.0147 -32.9992 -32.9991 -32.9962 -32.9961 -23.6894 -23.6894
   -23.5385 -23.5385 -23.5365 -23.5365   1.7305   1.8121   1.9216   1.9940
     8.1471   8.4178   8.9925   9.0329   9.9906  10.4835  11.0661  11.2218
    11.6553  11.9932  12.1891  12.5963  14.0413  14.3322

          k = 0.4167-0.2406 0.0652 (  9141 PWs)   bands (ev):

   -59.2906 -59.2906 -33.0515 -33.0514 -33.0501 -33.0500 -33.0457 -33.0456
   -33.0452 -33.0451 -33.0176 -33.0172 -33.0169 -33.0167 -33.0164 -33.0163
   -33.0149 -33.0143 -32.9995 -32.9994 -32.9966 -32.9964 -23.6940 -23.6940
   -23.5463 -23.5463 -23.4871 -23.4871   1.3301   1.4804   1.7084   1.8657
     8.0100   8.3258   9.1390   9.2717   9.9315  10.6099  11.5252  11.6401
    12.1771  12.5159  13.2596  13.5195  13.5290  13.7875

     highest occupied level (ev):    14.8613

!    total energy              =   -1273.73439476 Ry
     estimated scf accuracy    <          1.2E-11 Ry

     convergence has been achieved in  12 iterations

     Forces acting on atoms (cartesian axes, Ry/au):

     atom    1 type  1   force =     0.00000000    0.00000000    0.00000000
     atom    2 type  1   force =    -0.00000000   -0.00000000    0.00000000
     atom    3 type  2   force =     0.00000000   -0.00000000   -0.02731398
     atom    4 type  2   force =     0.00000000    0.00000000    0.02731398
     atom    5 type  2   force =    -0.00000000   -0.00000000   -0.02731398
     atom    6 type  2   force =    -0.00000000    0.00000000    0.02731398

     Total force =     0.054628     Total SCF correction =     0.000018


     Computing stress (Cartesian axis) and pressure

          total   stress  (Ry/bohr**3)                   (kbar)     P=       98.09
   0.00066785  -0.00000000   0.00000000           98.24       -0.00        0.00
  -0.00000000   0.00066785   0.00000000           -0.00       98.24        0.00
   0.00000000  -0.00000000   0.00066475            0.00       -0.00       97.79


     Entering FIRE :       iteration =     3

     FIRE Parameters: P = 0.00004380, dt = 20.00, alpha = 0.200 nsteppos =   3 at step  3


ATOMIC_POSITIONS (crystal)
W                0.3333333430        0.6666666870        0.7500000000
W                0.6666666270        0.3333333130        0.2500000000
Se               0.3333333430        0.6666666870        0.1137680984
Se               0.6666666270        0.3333333130        0.8862319086
Se               0.6666666270        0.3333333130        0.6137680914
Se               0.3333333430        0.6666666870        0.3862319086



     Writing config-only to output data dir ./WSe.save/ :
     XML data file
     NEW-OLD atomic charge density approx. for the potential

     total cpu time spent up to now is       22.1 secs

     Self-consistent Calculation

     iteration #  1     ecut=    80.00 Ry     beta= 0.50
     Davidson diagonalization with overlap
     ethr =  1.00E-06,  avg # of iterations = 10.3

     total cpu time spent up to now is       23.2 secs

     total energy              =   -1273.73760802 Ry
     estimated scf accuracy    <       0.00082791 Ry

     iteration #  2     ecut=    80.00 Ry     beta= 0.50
     Davidson diagonalization with overlap
     ethr =  9.00E-07,  avg # of iterations =  5.7

     total cpu time spent up to now is       23.6 secs

     total energy              =   -1273.73759617 Ry
     estimated scf accuracy    <       0.00174859 Ry

     iteration #  3     ecut=    80.00 Ry     beta= 0.50
     Davidson diagonalization with overlap
     ethr =  9.00E-07,  avg # of iterations =  5.1

     total cpu time spent up to now is       24.0 secs

     total energy              =   -1273.73788513 Ry
     estimated scf accuracy    <       0.00003490 Ry

     iteration #  4     ecut=    80.00 Ry     beta= 0.50
     Davidson diagonalization with overlap
     ethr =  3.79E-08,  avg # of iterations =  4.9

     total cpu time spent up to now is       24.4 secs

     total energy              =   -1273.73788878 Ry
     estimated scf accuracy    <       0.00002653 Ry

     iteration #  5     ecut=    80.00 Ry     beta= 0.50
     Davidson diagonalization with overlap
     ethr =  2.88E-08,  avg # of iterations =  4.0

     total cpu time spent up to now is       24.7 secs

     total energy              =   -1273.73789274 Ry
     estimated scf accuracy    <       0.00000044 Ry

     iteration #  6     ecut=    80.00 Ry     beta= 0.50
     Davidson diagonalization with overlap
     ethr =  4.79E-10,  avg # of iterations =  8.2

     total cpu time spent up to now is       25.3 secs

     total energy              =   -1273.73789300 Ry
     estimated scf accuracy    <       0.00000198 Ry

     iteration #  7     ecut=    80.00 Ry     beta= 0.50
     Davidson diagonalization with overlap
     ethr =  4.79E-10,  avg # of iterations =  5.2

     total cpu time spent up to now is       25.6 secs

     total energy              =   -1273.73789312 Ry
     estimated scf accuracy    <       0.00000011 Ry

     iteration #  8     ecut=    80.00 Ry     beta= 0.50
     Davidson diagonalization with overlap
     ethr =  1.19E-10,  avg # of iterations =  5.2

     total cpu time spent up to now is       26.1 secs

     total energy              =   -1273.73789315 Ry
     estimated scf accuracy    <       0.00000007 Ry

     iteration #  9     ecut=    80.00 Ry     beta= 0.50
     Davidson diagonalization with overlap
     ethr =  7.19E-11,  avg # of iterations =  2.2

     total cpu time spent up to now is       26.3 secs

     total energy              =   -1273.73789315 Ry
     estimated scf accuracy    <       0.00000002 Ry

     iteration # 10     ecut=    80.00 Ry     beta= 0.50
     Davidson diagonalization with overlap
     ethr =  1.75E-11,  avg # of iterations =  5.2

     total cpu time spent up to now is       26.8 secs

     total energy              =   -1273.73789316 Ry
     estimated scf accuracy    <          3.9E-09 Ry

     iteration # 11     ecut=    80.00 Ry     beta= 0.50
     Davidson diagonalization with overlap
     ethr =  4.21E-12,  avg # of iterations =  2.9

     total cpu time spent up to now is       27.1 secs

     total energy              =   -1273.73789316 Ry
     estimated scf accuracy    <          6.5E-10 Ry

     iteration # 12     ecut=    80.00 Ry     beta= 0.50
     Davidson diagonalization with overlap
     ethr =  7.08E-13,  avg # of iterations =  5.2

     total cpu time spent up to now is       27.6 secs

     End of self-consistent calculation

          k = 0.0833 0.1443 0.0652 (  9141 PWs)   bands (ev):

   -59.3193 -59.3192 -33.0322 -33.0321 -33.0319 -33.0318 -33.0313 -33.0312
   -33.0307 -33.0306 -33.0029 -33.0029 -33.0024 -33.0023 -33.0017 -33.0014
   -33.0013 -33.0008 -32.9907 -32.9904 -32.9886 -32.9883 -23.5968 -23.5968
   -23.4758 -23.4758 -23.4353 -23.4352  -0.3265  -0.0199   0.7648   1.2444
     7.9036   8.9607  11.0603  11.4474  11.4994  12.3429  12.6369  12.6649
    12.8242  12.9289  13.4382  13.5474  14.3314  14.4205

          k = 0.0833 0.3368 0.0652 (  9132 PWs)   bands (ev):

   -59.3131 -59.3131 -33.0323 -33.0321 -33.0316 -33.0315 -33.0288 -33.0287
   -33.0283 -33.0283 -33.0036 -33.0035 -33.0032 -33.0029 -33.0026 -33.0024
   -33.0017 -33.0010 -32.9894 -32.9892 -32.9872 -32.9870 -23.6024 -23.6024
   -23.5691 -23.5691 -23.4716 -23.4716   0.6340   0.8888   1.3399   1.6708
     8.8142   9.4378   9.7047   9.9002  10.6584  10.6992  11.5840  11.9080
    12.7597  12.8311  12.9602  13.1725  13.7210  13.7608

          k = 0.0833 0.5292 0.0652 (  9140 PWs)   bands (ev):

   -59.3085 -59.3085 -33.0326 -33.0324 -33.0313 -33.0311 -33.0269 -33.0269
   -33.0266 -33.0266 -33.0045 -33.0043 -33.0039 -33.0034 -33.0031 -33.0027
   -33.0019 -33.0012 -32.9885 -32.9884 -32.9862 -32.9860 -23.6931 -23.6931
   -23.5488 -23.5487 -23.4982 -23.4982   1.6272   1.7368   1.9003   2.0008
     7.9704   8.3124   9.0521   9.1543   9.9916  10.7012  11.4233  11.5258
    12.1643  12.4478  12.7948  13.0101  13.8838  14.1552

          k = 0.0833-0.4330 0.0652 (  9130 PWs)   bands (ev):

   -59.3102 -59.3102 -33.0325 -33.0323 -33.0314 -33.0313 -33.0276 -33.0276
   -33.0272 -33.0272 -33.0041 -33.0040 -33.0036 -33.0033 -33.0029 -33.0026
   -33.0018 -33.0011 -32.9889 -32.9887 -32.9866 -32.9864 -23.6601 -23.6601
   -23.5562 -23.5562 -23.4885 -23.4885   1.2107   1.3973   1.6770   1.8874
     8.4693   8.8118   9.3802   9.4615  10.0484  10.6972  11.4096  11.6708
    12.4344  12.5181  12.8496  12.9349  13.8246  13.9472

          k = 0.0833-0.2406 0.0652 (  9146 PWs)   bands (ev):

   -59.3164 -59.3164 -33.0321 -33.0320 -33.0318 -33.0318 -33.0301 -33.0300
   -33.0296 -33.0295 -33.0032 -33.0030 -33.0028 -33.0025 -33.0022 -33.0020
   -33.0015 -33.0009 -32.9901 -32.9899 -32.9880 -32.9877 -23.5840 -23.5840
   -23.5350 -23.5349 -23.4521 -23.4521   0.0860   0.3770   1.0124   1.4339
     8.3759   9.3353  10.5795  10.6641  10.8710  11.6028  12.0968  12.2954
    12.8763  12.9233  13.2559  13.4938  13.8771  13.8857

          k = 0.0833-0.0481 0.0652 (  9128 PWs)   bands (ev):

   -59.3209 -59.3209 -33.0323 -33.0322 -33.0320 -33.0318 -33.0318 -33.0316
   -33.0313 -33.0312 -33.0027 -33.0027 -33.0022 -33.0021 -33.0014 -33.0013
   -33.0009 -33.0007 -32.9910 -32.9907 -32.9890 -32.9887 -23.6042 -23.6042
   -23.4409 -23.4408 -23.4260 -23.4260  -0.5458  -0.2339   0.6332   1.1412
     7.6358   8.7210  11.2003  12.0089  12.0483  12.4561  12.4891  12.7714
    13.3086  13.3945  13.4814  13.4964  14.5449  14.8107

          k = 0.2500 0.4330 0.0652 (  9109 PWs)   bands (ev):

   -59.3085 -59.3085 -33.0313 -33.0312 -33.0302 -33.0301 -33.0279 -33.0279
   -33.0278 -33.0278 -33.0047 -33.0040 -33.0038 -33.0036 -33.0025 -33.0023
   -33.0023 -33.0016 -32.9886 -32.9885 -32.9862 -32.9861 -23.6514 -23.6514
   -23.5488 -23.5488 -23.5410 -23.5410   1.5748   1.7009   1.8981   2.0308
     8.7917   8.8872   9.3204   9.5188  10.2030  10.2232  10.8528  11.1341
    11.4459  11.6125  12.4064  12.8049  14.0031  14.1985

          k = 0.2500 0.6255 0.0652 (  9110 PWs)   bands (ev):

   -59.3073 -59.3073 -33.0308 -33.0308 -33.0296 -33.0295 -33.0279 -33.0279
   -33.0278 -33.0278 -33.0050 -33.0042 -33.0038 -33.0037 -33.0027 -33.0025
   -33.0023 -33.0018 -32.9883 -32.9883 -32.9860 -32.9859 -23.6548 -23.6548
   -23.5693 -23.5693 -23.5433 -23.5433   1.9116   1.9646   2.0640   2.1118
     8.6836   8.8403   8.9873   9.1796  10.1885  10.3714  10.5377  10.7862
    11.3212  11.4451  12.1936  12.5397  14.2324  14.5164

          k = 0.2500-0.3368 0.0652 (  9121 PWs)   bands (ev):

   -59.3106 -59.3106 -33.0319 -33.0318 -33.0310 -33.0309 -33.0282 -33.0281
   -33.0279 -33.0279 -33.0042 -33.0038 -33.0035 -33.0034 -33.0026 -33.0024
   -33.0020 -33.0013 -32.9890 -32.9888 -32.9867 -32.9865 -23.6342 -23.6341
   -23.5582 -23.5582 -23.5034 -23.5034   1.0997   1.3043   1.6192   1.8605
     8.8949   9.1709   9.6391   9.7705  10.1527  10.4601  11.0151  11.5346
    12.0188  12.1764  12.8015  13.0358  13.8763  13.9887

          k = 0.2500-0.1443 0.0652 (  9144 PWs)   bands (ev):

   -59.3152 -59.3152 -33.0323 -33.0321 -33.0319 -33.0318 -33.0295 -33.0294
   -33.0290 -33.0289 -33.0032 -33.0031 -33.0031 -33.0025 -33.0024 -33.0023
   -33.0015 -33.0009 -32.9899 -32.9896 -32.9877 -32.9875 -23.5786 -23.5785
   -23.5642 -23.5642 -23.4547 -23.4547   0.2772   0.5577   1.1264   1.5176
     8.5485   9.3928  10.1722  10.2831  10.7604  11.1523  12.3462  12.4629
    12.6189  13.1225  13.1665  13.2416  13.5857  13.6547

          k = 0.4167 0.7217 0.0652 (  9131 PWs)   bands (ev):

   -59.3078 -59.3077 -33.0318 -33.0317 -33.0305 -33.0304 -33.0273 -33.0272
   -33.0271 -33.0271 -33.0047 -33.0043 -33.0038 -33.0037 -33.0027 -33.0026
   -33.0021 -33.0015 -32.9884 -32.9883 -32.9861 -32.9859 -23.6804 -23.6804
   -23.5453 -23.5453 -23.5316 -23.5316   1.8125   1.8855   2.0041   2.0657
     8.2059   8.5062   9.0504   9.0881  10.0544  10.5703  11.1436  11.2604
    11.6864  12.0742  12.1466  12.5833  14.0631  14.3810

          k = 0.4167-0.2406 0.0652 (  9141 PWs)   bands (ev):

   -59.3094 -59.3094 -33.0328 -33.0326 -33.0316 -33.0314 -33.0271 -33.0270
   -33.0267 -33.0266 -33.0044 -33.0040 -33.0036 -33.0034 -33.0031 -33.0028
   -33.0018 -33.0010 -32.9887 -32.9885 -32.9864 -32.9862 -23.6850 -23.6850
   -23.5528 -23.5527 -23.4832 -23.4832   1.4046   1.5569   1.7797   1.9371
     8.0818   8.4344   9.1481   9.2826   9.9852  10.7209  11.6591  11.7930
    12.1131  12.4698  13.2708  13.5451  13.6059  13.9090

     highest occupied level (ev):    14.8107

!    total energy              =   -1273.73789316 Ry
     estimated scf accuracy    <          8.5E-12 Ry

     convergence has been achieved in  12 iterations

     Forces acting on atoms (cartesian axes, Ry/au):

     atom    1 type  1   force =     0.00000000   -0.00000000    0.00000000
     atom    2 type  1   force =     0.00000000    0.00000000    0.00000000
     atom    3 type  2   force =     0.00000000   -0.00000000   -0.00170692
     atom    4 type  2   force =     0.00000000    0.00000000    0.00170692
     atom    5 type  2   force =    -0.00000000   -0.00000000   -0.00170692
     atom    6 type  2   force =    -0.00000000    0.00000000    0.00170692

     Total force =     0.003414     Total SCF correction =     0.000017


     Computing stress (Cartesian axis) and pressure

          total   stress  (Ry/bohr**3)                   (kbar)     P=       66.41
   0.00052094  -0.00000000   0.00000000           76.63       -0.00        0.00
  -0.00000000   0.00052094  -0.00000000           -0.00       76.63       -0.00
   0.00000000  -0.00000000   0.00031251            0.00       -0.00       45.97


     Entering FIRE :       iteration =     4

     FIRE Parameters: P = 0.00000341, dt = 20.00, alpha = 0.200 nsteppos =   4 at step  4


ATOMIC_POSITIONS (crystal)
W                0.3333333430        0.6666666870        0.7500000000
W                0.6666666270        0.3333333130        0.2500000000
Se               0.3333333430        0.6666666870        0.1111323467
Se               0.6666666270        0.3333333130        0.8888676603
Se               0.6666666270        0.3333333130        0.6111323397
Se               0.3333333430        0.6666666870        0.3888676603



     Writing config-only to output data dir ./WSe.save/ :
     XML data file
     NEW-OLD atomic charge density approx. for the potential

     total cpu time spent up to now is       28.4 secs

     Self-consistent Calculation

     iteration #  1     ecut=    80.00 Ry     beta= 0.50
     Davidson diagonalization with overlap
     ethr =  1.00E-06,  avg # of iterations = 10.2

     total cpu time spent up to now is       29.6 secs

     total energy              =   -1273.73500003 Ry
     estimated scf accuracy    <       0.00087004 Ry

     iteration #  2     ecut=    80.00 Ry     beta= 0.50
     Davidson diagonalization with overlap
     ethr =  9.46E-07,  avg # of iterations =  5.7

     total cpu time spent up to now is       30.1 secs

     total energy              =   -1273.73496596 Ry
     estimated scf accuracy    <       0.00219300 Ry

     iteration #  3     ecut=    80.00 Ry     beta= 0.50
     Davidson diagonalization with overlap
     ethr =  9.46E-07,  avg # of iterations =  5.3

     total cpu time spent up to now is       30.4 secs

     total energy              =   -1273.73530583 Ry
     estimated scf accuracy    <       0.00004138 Ry

     iteration #  4     ecut=    80.00 Ry     beta= 0.50
     Davidson diagonalization with overlap
     ethr =  4.50E-08,  avg # of iterations =  4.4

     total cpu time spent up to now is       30.8 secs

     total energy              =   -1273.73530984 Ry
     estimated scf accuracy    <       0.00001995 Ry

     iteration #  5     ecut=    80.00 Ry     beta= 0.50
     Davidson diagonalization with overlap
     ethr =  2.17E-08,  avg # of iterations =  4.7

     total cpu time spent up to now is       31.2 secs

     total energy              =   -1273.73531364 Ry
     estimated scf accuracy    <       0.00000042 Ry

     iteration #  6     ecut=    80.00 Ry     beta= 0.50
     Davidson diagonalization with overlap
     ethr =  4.54E-10,  avg # of iterations =  6.5

     total cpu time spent up to now is       31.6 secs

     total energy              =   -1273.73531376 Ry
     estimated scf accuracy    <       0.00000058 Ry

     iteration #  7     ecut=    80.00 Ry     beta= 0.50
     Davidson diagonalization with overlap
     ethr =  4.54E-10,  avg # of iterations =  3.7

     total cpu time spent up to now is       31.9 secs

     total energy              =   -1273.73531379 Ry
     estimated scf accuracy    <       0.00000007 Ry

     iteration #  8     ecut=    80.00 Ry     beta= 0.50
     Davidson diagonalization with overlap
     ethr =  7.10E-11,  avg # of iterations =  5.7

     total cpu time spent up to now is       32.4 secs

     total energy              =   -1273.73531381 Ry
     estimated scf accuracy    <       0.00000007 Ry

     iteration #  9     ecut=    80.00 Ry     beta= 0.50
     Davidson diagonalization with overlap
     ethr =  7.10E-11,  avg # of iterations =  2.2

     total cpu time spent up to now is       32.7 secs

     total energy              =   -1273.73531381 Ry
     estimated scf accuracy    <       0.00000001 Ry

     iteration # 10     ecut=    80.00 Ry     beta= 0.50
     Davidson diagonalization with overlap
     ethr =  1.25E-11,  avg # of iterations =  5.1

     total cpu time spent up to now is       33.1 secs

     total energy              =   -1273.73531382 Ry
     estimated scf accuracy    <          5.3E-10 Ry

     iteration # 11     ecut=    80.00 Ry     beta= 0.50
     Davidson diagonalization with overlap
     ethr =  5.81E-13,  avg # of iterations =  4.2

     total cpu time spent up to now is       33.4 secs

     total energy              =   -1273.73531382 Ry
     estimated scf accuracy    <          2.2E-10 Ry

     iteration # 12     ecut=    80.00 Ry     beta= 0.50
     Davidson diagonalization with overlap
     ethr =  2.42E-13,  avg # of iterations =  5.2

     total cpu time spent up to now is       33.9 secs

     End of self-consistent calculation

          k = 0.0833 0.1443 0.0652 (  9141 PWs)   bands (ev):

   -59.3392 -59.3392 -33.0161 -33.0160 -33.0158 -33.0157 -33.0152 -33.0150
   -33.0147 -33.0146 -32.9925 -32.9925 -32.9921 -32.9919 -32.9912 -32.9909
   -32.9908 -32.9903 -32.9830 -32.9826 -32.9813 -32.9810 -23.6030 -23.6029
   -23.4742 -23.4742 -23.4347 -23.4347  -0.2653   0.0749   0.7697   1.2914
     7.9148   9.0207  11.0463  11.6035  11.6644  12.4406  12.7972  12.8240
    12.9552  13.0579  13.5225  13.5387  14.3067  14.3818

          k = 0.0833 0.3368 0.0652 (  9132 PWs)   bands (ev):

   -59.3331 -59.3331 -33.0162 -33.0160 -33.0156 -33.0155 -33.0128 -33.0127
   -33.0124 -33.0123 -32.9932 -32.9932 -32.9929 -32.9925 -32.9920 -32.9919
   -32.9911 -32.9905 -32.9817 -32.9814 -32.9799 -32.9796 -23.5981 -23.5981
   -23.5766 -23.5765 -23.4705 -23.4705   0.6905   0.9593   1.3881   1.7357
     8.8634   9.5074   9.7728   9.9627  10.7442  10.8049  11.6591  12.0257
    12.7980  12.8685  13.0202  13.1763  13.7697  13.8462

          k = 0.0833 0.5292 0.0652 (  9140 PWs)   bands (ev):

   -59.3287 -59.3286 -33.0165 -33.0163 -33.0154 -33.0152 -33.0110 -33.0109
   -33.0107 -33.0106 -32.9941 -32.9939 -32.9933 -32.9929 -32.9927 -32.9923
   -32.9913 -32.9906 -32.9807 -32.9806 -32.9789 -32.9787 -23.6870 -23.6870
   -23.5572 -23.5571 -23.4967 -23.4967   1.6945   1.7922   1.9881   2.0739
     8.0279   8.4077   9.0662   9.1723  10.0505  10.8132  11.5151  11.6422
    12.1229  12.4280  12.8345  13.0722  13.9082  14.2147

          k = 0.0833-0.4330 0.0652 (  9130 PWs)   bands (ev):

   -59.3303 -59.3303 -33.0164 -33.0162 -33.0155 -33.0153 -33.0116 -33.0115
   -33.0113 -33.0112 -32.9938 -32.9936 -32.9931 -32.9928 -32.9924 -32.9922
   -32.9913 -32.9906 -32.9811 -32.9809 -32.9793 -32.9790 -23.6546 -23.6546
   -23.5643 -23.5643 -23.4871 -23.4871   1.2702   1.4544   1.7527   1.9598
     8.5448   8.9254   9.3928   9.4714  10.1091  10.8053  11.4848  11.7906
    12.4202  12.5240  12.8930  12.9848  13.8698  14.0280

          k = 0.0833-0.2406 0.0652 (  9146 PWs)   bands (ev):

   -59.3364 -59.3364 -33.0160 -33.0160 -33.0158 -33.0157 -33.0141 -33.0139
   -33.0136 -33.0135 -32.9928 -32.9927 -32.9926 -32.9921 -32.9916 -32.9914
   -32.9910 -32.9904 -32.9823 -32.9821 -32.9807 -32.9804 -23.5907 -23.5907
   -23.5321 -23.5321 -23.4513 -23.4512   0.1440   0.4617   1.0349   1.4890
     8.3933   9.3832  10.7020  10.7876  10.9427  11.7054  12.1974  12.4089
    13.0140  13.0625  13.3020  13.4741  13.8644  13.8926

          k = 0.0833-0.0481 0.0652 (  9128 PWs)   bands (ev):

   -59.3409 -59.3409 -33.0162 -33.0160 -33.0159 -33.0157 -33.0157 -33.0156
   -33.0153 -33.0152 -32.9923 -32.9923 -32.9919 -32.9918 -32.9909 -32.9908
   -32.9904 -32.9902 -32.9833 -32.9829 -32.9817 -32.9813 -23.6100 -23.6100
   -23.4401 -23.4400 -23.4255 -23.4255  -0.4824  -0.1338   0.6295   1.1838
     7.6452   8.7857  11.1499  12.1754  12.2217  12.6256  12.6643  12.8199
    13.4392  13.5169  13.5391  13.6073  14.5354  14.7640

          k = 0.2500 0.4330 0.0652 (  9109 PWs)   bands (ev):

   -59.3287 -59.3286 -33.0152 -33.0151 -33.0143 -33.0141 -33.0119 -33.0119
   -33.0119 -33.0118 -32.9942 -32.9935 -32.9934 -32.9930 -32.9922 -32.9919
   -32.9918 -32.9911 -32.9808 -32.9806 -32.9789 -32.9788 -23.6461 -23.6460
   -23.5572 -23.5572 -23.5387 -23.5386   1.6382   1.7529   1.9859   2.1052
     8.8803   8.9643   9.3886   9.6099  10.2106  10.2569  10.9143  11.1914
    11.5100  11.7167  12.3617  12.8025  14.0264  14.2530

          k = 0.2500 0.6255 0.0652 (  9110 PWs)   bands (ev):

   -59.3275 -59.3274 -33.0147 -33.0146 -33.0137 -33.0136 -33.0120 -33.0119
   -33.0118 -33.0118 -32.9945 -32.9937 -32.9933 -32.9931 -32.9923 -32.9921
   -32.9919 -32.9913 -32.9805 -32.9805 -32.9787 -32.9786 -23.6493 -23.6493
   -23.5665 -23.5665 -23.5520 -23.5520   1.9849   2.0224   2.1527   2.1832
     8.7402   8.9123   9.0698   9.2828  10.2321  10.3927  10.5743  10.8188
    11.3823  11.5085  12.1859  12.5412  14.2447  14.5566

          k = 0.2500-0.3368 0.0652 (  9121 PWs)   bands (ev):

   -59.3307 -59.3307 -33.0158 -33.0157 -33.0150 -33.0149 -33.0122 -33.0121
   -33.0120 -33.0119 -32.9937 -32.9934 -32.9930 -32.9930 -32.9921 -32.9920
   -32.9915 -32.9908 -32.9812 -32.9810 -32.9794 -32.9792 -23.6292 -23.6292
   -23.5662 -23.5662 -23.5017 -23.5016   1.1574   1.3628   1.6897   1.9318
     8.9832   9.2787   9.6480   9.8009  10.2364  10.5481  11.0882  11.6344
    12.0769  12.2584  12.7550  13.0404  13.9118  14.0561

          k = 0.2500-0.1443 0.0652 (  9144 PWs)   bands (ev):

   -59.3352 -59.3352 -33.0162 -33.0161 -33.0159 -33.0157 -33.0135 -33.0134
   -33.0131 -33.0129 -32.9929 -32.9929 -32.9927 -32.9921 -32.9919 -32.9918
   -32.9910 -32.9904 -32.9821 -32.9818 -32.9804 -32.9801 -23.5855 -23.5855
   -23.5608 -23.5608 -23.4538 -23.4538   0.3344   0.6376   1.1576   1.5764
     8.5737   9.4402  10.2716  10.3910  10.8579  11.2424  12.4751  12.5992
    12.6106  13.1284  13.2634  13.4048  13.5810  13.6549

          k = 0.4167 0.7217 0.0652 (  9131 PWs)   bands (ev):

   -59.3279 -59.3279 -33.0157 -33.0155 -33.0146 -33.0144 -33.0113 -33.0113
   -33.0112 -33.0111 -32.9942 -32.9939 -32.9933 -32.9931 -32.9924 -32.9923
   -32.9916 -32.9909 -32.9806 -32.9805 -32.9787 -32.9786 -23.6745 -23.6744
   -23.5539 -23.5539 -23.5294 -23.5294   1.8838   1.9425   2.0929   2.1376
     8.2591   8.5912   9.1010   9.1355  10.1175  10.6556  11.2260  11.2878
    11.7138  12.1159  12.1653  12.5839  14.0766  14.4230

          k = 0.4167-0.2406 0.0652 (  9141 PWs)   bands (ev):

   -59.3295 -59.3295 -33.0167 -33.0165 -33.0157 -33.0155 -33.0111 -33.0110
   -33.0108 -33.0107 -32.9940 -32.9936 -32.9931 -32.9930 -32.9926 -32.9924
   -32.9912 -32.9905 -32.9809 -32.9807 -32.9791 -32.9788 -23.6790 -23.6790
   -23.5610 -23.5609 -23.4819 -23.4819   1.4674   1.6123   1.8627   2.0105
     8.1464   8.5394   9.1559   9.2902  10.0366  10.8330  11.7891  11.9451
    12.0578  12.4329  13.2808  13.5695  13.6736  14.0282

     highest occupied level (ev):    14.7640

!    total energy              =   -1273.73531382 Ry
     estimated scf accuracy    <          3.0E-11 Ry

     convergence has been achieved in  12 iterations

     Forces acting on atoms (cartesian axes, Ry/au):

     atom    1 type  1   force =     0.00000000    0.00000000    0.00000000
     atom    2 type  1   force =     0.00000000   -0.00000000    0.00000000
     atom    3 type  2   force =     0.00000000    0.00000000    0.02230064
     atom    4 type  2   force =     0.00000000    0.00000000   -0.02230064
     atom    5 type  2   force =     0.00000000    0.00000000    0.02230064
     atom    6 type  2   force =     0.00000000    0.00000000   -0.02230064

     Total force =     0.044601     Total SCF correction =     0.000033


     Computing stress (Cartesian axis) and pressure

          total   stress  (Ry/bohr**3)                   (kbar)     P=       36.74
   0.00038782  -0.00000000   0.00000000           57.05       -0.00        0.00
  -0.00000000   0.00038782   0.00000000           -0.00       57.05        0.00
   0.00000000  -0.00000000  -0.00002638            0.00       -0.00       -3.88


     Entering FIRE :       iteration =     5

     FIRE Parameters: P = -.00004506, dt = 10.00, alpha = 0.200 nsteppos =   0 at step  5


ATOMIC_POSITIONS (crystal)
W                0.3333333430        0.6666666870        0.7500000000
W                0.6666666270        0.3333333130        0.2500000000
Se               0.3333333430        0.6666666870        0.1125547636
Se               0.6666666270        0.3333333130        0.8874452434
Se               0.6666666270        0.3333333130        0.6125547566
Se               0.3333333430        0.6666666870        0.3874452434



     Writing config-only to output data dir ./WSe.save/ :
     XML data file
     NEW-OLD atomic charge density approx. for the potential

     total cpu time spent up to now is       34.4 secs

     Self-consistent Calculation

     iteration #  1     ecut=    80.00 Ry     beta= 0.50
     Davidson diagonalization with overlap
     ethr =  1.00E-06,  avg # of iterations =  8.9

     total cpu time spent up to now is       35.4 secs

     total energy              =   -1273.73736666 Ry
     estimated scf accuracy    <       0.00021741 Ry

     iteration #  2     ecut=    80.00 Ry     beta= 0.50
     Davidson diagonalization with overlap
     ethr =  2.36E-07,  avg # of iterations =  5.7

     total cpu time spent up to now is       36.0 secs

     total energy              =   -1273.73736359 Ry
     estimated scf accuracy    <       0.00045411 Ry

     iteration #  3     ecut=    80.00 Ry     beta= 0.50
     Davidson diagonalization with overlap
     ethr =  2.36E-07,  avg # of iterations =  5.3

     total cpu time spent up to now is       37.1 secs

     total energy              =   -1273.73744016 Ry
     estimated scf accuracy    <       0.00001276 Ry

     iteration #  4     ecut=    80.00 Ry     beta= 0.50
     Davidson diagonalization with overlap
     ethr =  1.39E-08,  avg # of iterations =  4.2

     total cpu time spent up to now is       37.5 secs

     total energy              =   -1273.73744088 Ry
     estimated scf accuracy    <       0.00000690 Ry

     iteration #  5     ecut=    80.00 Ry     beta= 0.50
     Davidson diagonalization with overlap
     ethr =  7.50E-09,  avg # of iterations =  4.2

     total cpu time spent up to now is       37.8 secs

     total energy              =   -1273.73744221 Ry
     estimated scf accuracy    <       0.00000012 Ry

     iteration #  6     ecut=    80.00 Ry     beta= 0.50
     Davidson diagonalization with overlap
     ethr =  1.25E-10,  avg # of iterations =  6.2

     total cpu time spent up to now is       38.3 secs

     total energy              =   -1273.73744225 Ry
     estimated scf accuracy    <       0.00000016 Ry

     iteration #  7     ecut=    80.00 Ry     beta= 0.50
     Davidson diagonalization with overlap
     ethr =  1.25E-10,  avg # of iterations =  3.8

     total cpu time spent up to now is       38.7 secs

     total energy              =   -1273.73744226 Ry
     estimated scf accuracy    <       0.00000001 Ry

     iteration #  8     ecut=    80.00 Ry     beta= 0.50
     Davidson diagonalization with overlap
     ethr =  1.37E-11,  avg # of iterations =  5.6

     total cpu time spent up to now is       39.1 secs

     total energy              =   -1273.73744227 Ry
     estimated scf accuracy    <       0.00000002 Ry

     iteration #  9     ecut=    80.00 Ry     beta= 0.50
     Davidson diagonalization with overlap
     ethr =  1.37E-11,  avg # of iterations =  3.1

     total cpu time spent up to now is       39.4 secs

     total energy              =   -1273.73744227 Ry
     estimated scf accuracy    <          1.1E-09 Ry

     iteration # 10     ecut=    80.00 Ry     beta= 0.50
     Davidson diagonalization with overlap
     ethr =  1.18E-12,  avg # of iterations =  5.8

     total cpu time spent up to now is       39.9 secs

     total energy              =   -1273.73744227 Ry
     estimated scf accuracy    <          8.3E-10 Ry

     iteration # 11     ecut=    80.00 Ry     beta= 0.50
     Davidson diagonalization with overlap
     ethr =  9.00E-13,  avg # of iterations =  2.3

     total cpu time spent up to now is       40.2 secs

     total energy              =   -1273.73744227 Ry
     estimated scf accuracy    <          1.2E-10 Ry

     iteration # 12     ecut=    80.00 Ry     beta= 0.50
     Davidson diagonalization with overlap
     ethr =  1.29E-13,  avg # of iterations =  5.1

     total cpu time spent up to now is       40.6 secs

     End of self-consistent calculation

          k = 0.0833 0.1443 0.0652 (  9141 PWs)   bands (ev):

   -59.3284 -59.3284 -33.0244 -33.0243 -33.0241 -33.0240 -33.0235 -33.0234
   -33.0230 -33.0229 -32.9977 -32.9977 -32.9973 -32.9971 -32.9965 -32.9962
   -32.9961 -32.9956 -32.9868 -32.9864 -32.9849 -32.9846 -23.5995 -23.5994
   -23.4748 -23.4748 -23.4347 -23.4347  -0.2966   0.0262   0.7657   1.2654
     7.9094   8.9896  11.0534  11.5203  11.5763  12.3884  12.7122  12.7401
    12.8843  12.9893  13.4763  13.5418  14.3195  14.4023

          k = 0.0833 0.3368 0.0652 (  9132 PWs)   bands (ev):

   -59.3222 -59.3222 -33.0245 -33.0244 -33.0239 -33.0238 -33.0211 -33.0210
   -33.0207 -33.0206 -32.9985 -32.9984 -32.9981 -32.9977 -32.9974 -32.9972
   -32.9965 -32.9958 -32.9855 -32.9853 -32.9835 -32.9833 -23.6001 -23.6001
   -23.5724 -23.5723 -23.4708 -23.4708   0.6617   0.9243   1.3603   1.7002
     8.8384   9.4745   9.7348   9.9278  10.6990  10.7469  11.6197  11.9627
    12.7784  12.8507  12.9864  13.1716  13.7437  13.7992

          k = 0.0833 0.5292 0.0652 (  9140 PWs)   bands (ev):

   -59.3177 -59.3177 -33.0248 -33.0246 -33.0236 -33.0235 -33.0192 -33.0192
   -33.0189 -33.0189 -32.9993 -32.9991 -32.9986 -32.9982 -32.9980 -32.9975
   -32.9967 -32.9960 -32.9846 -32.9844 -32.9825 -32.9823 -23.6900 -23.6899
   -23.5525 -23.5524 -23.4972 -23.4972   1.6597   1.7645   1.9401   2.0345
     7.9978   8.3569   9.0589   9.1632  10.0190  10.7529  11.4672  11.5798
    12.1431  12.4376  12.8129  13.0389  13.8960  14.1830

          k = 0.0833-0.4330 0.0652 (  9130 PWs)   bands (ev):

   -59.3194 -59.3193 -33.0247 -33.0245 -33.0237 -33.0236 -33.0199 -33.0198
   -33.0196 -33.0195 -32.9990 -32.9988 -32.9984 -32.9981 -32.9977 -32.9974
   -32.9966 -32.9959 -32.9849 -32.9847 -32.9829 -32.9826 -23.6572 -23.6572
   -23.5598 -23.5597 -23.4876 -23.4876   1.2397   1.4265   1.7104   1.9205
     8.5053   8.8649   9.3864   9.4667  10.0767  10.7470  11.4456  11.7264
    12.4267  12.5206  12.8697  12.9567  13.8464  13.9845

          k = 0.0833-0.2406 0.0652 (  9146 PWs)   bands (ev):

   -59.3255 -59.3255 -33.0244 -33.0243 -33.0241 -33.0240 -33.0224 -33.0223
   -33.0219 -33.0218 -32.9980 -32.9979 -32.9977 -32.9973 -32.9969 -32.9968
   -32.9963 -32.9957 -32.9862 -32.9859 -32.9843 -32.9840 -23.5869 -23.5869
   -23.5333 -23.5333 -23.4514 -23.4514   0.1144   0.4187   1.0212   1.4587
     8.3848   9.3591  10.6383  10.7227  10.9010  11.6503  12.1439  12.3486
    12.9413  12.9892  13.2756  13.4838  13.8705  13.8877

          k = 0.0833-0.0481 0.0652 (  9128 PWs)   bands (ev):

   -59.3300 -59.3300 -33.0245 -33.0244 -33.0242 -33.0241 -33.0240 -33.0239
   -33.0236 -33.0235 -32.9975 -32.9975 -32.9970 -32.9970 -32.9963 -32.9961
   -32.9957 -32.9955 -32.9871 -32.9867 -32.9853 -32.9849 -23.6067 -23.6067
   -23.4402 -23.4402 -23.4255 -23.4255  -0.5148  -0.1855   0.6302   1.1601
     7.6407   8.7518  11.1762  12.0867  12.1292  12.5354  12.5709  12.7960
    13.3694  13.4615  13.4984  13.5444  14.5396  14.7886

          k = 0.2500 0.4330 0.0652 (  9109 PWs)   bands (ev):

   -59.3177 -59.3177 -33.0235 -33.0235 -33.0225 -33.0224 -33.0202 -33.0202
   -33.0201 -33.0201 -32.9995 -32.9988 -32.9987 -32.9983 -32.9974 -32.9972
   -32.9971 -32.9964 -32.9846 -32.9845 -32.9825 -32.9824 -23.6486 -23.6486
   -23.5525 -23.5525 -23.5396 -23.5396   1.6055   1.7270   1.9377   2.0650
     8.8333   8.9240   9.3533   9.5622  10.2066  10.2386  10.8804  11.1609
    11.4756  11.6603  12.3840  12.8025  14.0148  14.2244

          k = 0.2500 0.6255 0.0652 (  9110 PWs)   bands (ev):

   -59.3165 -59.3165 -33.0231 -33.0230 -33.0220 -33.0219 -33.0202 -33.0202
   -33.0201 -33.0201 -32.9998 -32.9990 -32.9986 -32.9984 -32.9975 -32.9973
   -32.9971 -32.9966 -32.9844 -32.9843 -32.9823 -32.9822 -23.6519 -23.6519
   -23.5677 -23.5677 -23.5472 -23.5471   1.9467   1.9927   2.1049   2.1448
     8.7105   8.8742   9.0263   9.2282  10.2098  10.3833  10.5529  10.8011
    11.3499  11.4732  12.1875  12.5389  14.2391  14.5358

          k = 0.2500-0.3368 0.0652 (  9121 PWs)   bands (ev):

   -59.3198 -59.3198 -33.0241 -33.0240 -33.0233 -33.0232 -33.0205 -33.0204
   -33.0202 -33.0202 -32.9990 -32.9986 -32.9983 -32.9982 -32.9974 -32.9972
   -32.9968 -32.9961 -32.9850 -32.9848 -32.9830 -32.9828 -23.6315 -23.6315
   -23.5617 -23.5617 -23.5023 -23.5023   1.1279   1.3342   1.6500   1.8930
     8.9369   9.2220   9.6442   9.7850  10.1917  10.5008  11.0483  11.5803
    12.0462  12.2144  12.7788  13.0364  13.8936  14.0202

          k = 0.2500-0.1443 0.0652 (  9144 PWs)   bands (ev):

   -59.3243 -59.3243 -33.0245 -33.0244 -33.0242 -33.0240 -33.0218 -33.0217
   -33.0213 -33.0212 -32.9981 -32.9981 -32.9980 -32.9973 -32.9972 -32.9971
   -32.9963 -32.9957 -32.9859 -32.9857 -32.9840 -32.9837 -23.5816 -23.5816
   -23.5623 -23.5623 -23.4540 -23.4540   0.3052   0.5973   1.1391   1.5441
     8.5611   9.4168  10.2199  10.3319  10.8045  11.1940  12.4063  12.5313
    12.6089  13.1482  13.1886  13.3176  13.5831  13.6546

          k = 0.4167 0.7217 0.0652 (  9131 PWs)   bands (ev):

   -59.3169 -59.3169 -33.0240 -33.0239 -33.0229 -33.0227 -33.0196 -33.0195
   -33.0194 -33.0194 -32.9995 -32.9992 -32.9986 -32.9984 -32.9976 -32.9975
   -32.9969 -32.9963 -32.9844 -32.9843 -32.9823 -32.9822 -23.6773 -23.6773
   -23.5491 -23.5491 -23.5303 -23.5303   1.8468   1.9134   2.0448   2.0989
     8.2312   8.5459   9.0747   9.1110  10.0836  10.6098  11.1812  11.2747
    11.6995  12.1086  12.1372  12.5819  14.0703  14.4012

          k = 0.4167-0.2406 0.0652 (  9141 PWs)   bands (ev):

   -59.3186 -59.3186 -33.0251 -33.0249 -33.0239 -33.0238 -33.0194 -33.0193
   -33.0190 -33.0189 -32.9992 -32.9988 -32.9984 -32.9983 -32.9979 -32.9976
   -32.9966 -32.9958 -32.9847 -32.9846 -32.9827 -32.9825 -23.6819 -23.6819
   -23.5564 -23.5563 -23.4823 -23.4823   1.4350   1.5850   1.8168   1.9708
     8.1126   8.4834   9.1518   9.2866  10.0092  10.7726  11.7197  11.8633
    12.0865  12.4516  13.2755  13.5565  13.6384  13.9643

     highest occupied level (ev):    14.7886

!    total energy              =   -1273.73744227 Ry
     estimated scf accuracy    <          4.4E-12 Ry

     convergence has been achieved in  12 iterations

     Forces acting on atoms (cartesian axes, Ry/au):

     atom    1 type  1   force =    -0.00000000    0.00000000    0.00000000
     atom    2 type  1   force =     0.00000000    0.00000000    0.00000000
     atom    3 type  2   force =     0.00000000    0.00000000    0.00957821
     atom    4 type  2   force =     0.00000000    0.00000000   -0.00957821
     atom    5 type  2   force =     0.00000000    0.00000000    0.00957821
     atom    6 type  2   force =     0.00000000    0.00000000   -0.00957821

     Total force =     0.019156     Total SCF correction =     0.000015


     Computing stress (Cartesian axis) and pressure

          total   stress  (Ry/bohr**3)                   (kbar)     P=       52.45
   0.00045776  -0.00000000   0.00000000           67.34       -0.00        0.00
  -0.00000000   0.00045776   0.00000000           -0.00       67.34        0.00
   0.00000000   0.00000000   0.00015422            0.00        0.00       22.69


     Entering FIRE :       iteration =     6

     FIRE Parameters: P = 0.00000154, dt = 10.00, alpha = 0.200 nsteppos =   1 at step  6


ATOMIC_POSITIONS (crystal)
W                0.3333333430        0.6666666870        0.7500000000
W                0.6666666270        0.3333333130        0.2500000000
Se               0.3333333430        0.6666666870        0.1127042054
Se               0.6666666270        0.3333333130        0.8872958016
Se               0.6666666270        0.3333333130        0.6127041984
Se               0.3333333430        0.6666666870        0.3872958016



     Writing config-only to output data dir ./WSe.save/ :
     XML data file
     NEW-OLD atomic charge density approx. for the potential

     total cpu time spent up to now is       41.2 secs

     Self-consistent Calculation

     iteration #  1     ecut=    80.00 Ry     beta= 0.50
     Davidson diagonalization with overlap
     ethr =  1.00E-06,  avg # of iterations =  4.0

     Threshold (ethr) on eigenvalues was too large:
     Diagonalizing with lowered threshold

     Davidson diagonalization with overlap
     ethr =  4.84E-09,  avg # of iterations =  7.4

     total cpu time spent up to now is       42.4 secs

     total energy              =   -1273.73756586 Ry
     estimated scf accuracy    <       0.00000254 Ry

     iteration #  2     ecut=    80.00 Ry     beta= 0.50
     Davidson diagonalization with overlap
     ethr =  2.76E-09,  avg # of iterations =  5.6

     total cpu time spent up to now is       42.8 secs

     total energy              =   -1273.73756578 Ry
     estimated scf accuracy    <       0.00000542 Ry

     iteration #  3     ecut=    80.00 Ry     beta= 0.50
     Davidson diagonalization with overlap
     ethr =  2.76E-09,  avg # of iterations =  5.2

     total cpu time spent up to now is       43.2 secs

     total energy              =   -1273.73756669 Ry
     estimated scf accuracy    <       0.00000012 Ry

     iteration #  4     ecut=    80.00 Ry     beta= 0.50
     Davidson diagonalization with overlap
     ethr =  1.34E-10,  avg # of iterations =  4.8

     total cpu time spent up to now is       43.5 secs

     total energy              =   -1273.73756670 Ry
[...]

          k = 0.0833-0.2406 0.0652 (  9146 PWs)   bands (ev):

   -59.3195 -59.3195 -33.0293 -33.0293 -33.0291 -33.0290 -33.0274 -33.0273
   -33.0269 -33.0268 -33.0014 -33.0012 -33.0010 -33.0006 -33.0003 -33.0001
   -32.9997 -32.9990 -32.9887 -32.9884 -32.9866 -32.9864 -23.5850 -23.5849
   -23.5343 -23.5343 -23.4518 -23.4518   0.0961   0.3918   1.0152   1.4423
     8.3791   9.3439  10.6001  10.6847  10.8808  11.6193  12.1132  12.3139
    12.8990  12.9463  13.2624  13.4901  13.8747  13.8861

          k = 0.0833-0.0481 0.0652 (  9128 PWs)   bands (ev):

   -59.3240 -59.3240 -33.0296 -33.0294 -33.0292 -33.0291 -33.0290 -33.0289
   -33.0286 -33.0285 -33.0009 -33.0008 -33.0003 -33.0003 -32.9996 -32.9994
   -32.9991 -32.9989 -32.9896 -32.9893 -32.9876 -32.9873 -23.6050 -23.6050
   -23.4406 -23.4405 -23.4257 -23.4257  -0.5348  -0.2168   0.6320   1.1476
     7.6376   8.7318  11.1918  12.0359  12.0765  12.4837  12.5175  12.7803
    13.3297  13.4177  13.4890  13.5107  14.5429  14.8030

          k = 0.2500 0.4330 0.0652 (  9109 PWs)   bands (ev):

   -59.3117 -59.3117 -33.0285 -33.0285 -33.0275 -33.0274 -33.0252 -33.0251
   -33.0251 -33.0250 -33.0028 -33.0021 -33.0020 -33.0017 -33.0007 -33.0005
   -33.0005 -32.9997 -32.9871 -32.9870 -32.9849 -32.9847 -23.6504 -23.6504
   -23.5500 -23.5500 -23.5405 -23.5405   1.5857   1.7103   1.9116   2.0426
     8.8062   8.9001   9.3320   9.5340  10.2043  10.2285  10.8622  11.1434
    11.4561  11.6289  12.3983  12.8039  14.0073  14.2076

          k = 0.2500 0.6255 0.0652 (  9110 PWs)   bands (ev):

   -59.3105 -59.3104 -33.0281 -33.0280 -33.0269 -33.0268 -33.0252 -33.0252
   -33.0251 -33.0251 -33.0031 -33.0023 -33.0019 -33.0018 -33.0008 -33.0006
   -33.0004 -32.9999 -32.9869 -32.9868 -32.9846 -32.9845 -23.6538 -23.6537
   -23.5687 -23.5687 -23.5446 -23.5446   1.9240   1.9746   2.0781   2.1232
     8.6930   8.8521   9.0010   9.1965  10.1960  10.3760  10.5426  10.7913
    11.3312  11.4546  12.1910  12.5391  14.2349  14.5233

          k = 0.2500-0.3368 0.0652 (  9121 PWs)   bands (ev):

   -59.3138 -59.3138 -33.0291 -33.0290 -33.0283 -33.0282 -33.0255 -33.0254
   -33.0252 -33.0251 -33.0023 -33.0019 -33.0016 -33.0015 -33.0007 -33.0005
   -33.0001 -32.9994 -32.9875 -32.9874 -32.9853 -32.9852 -23.6332 -23.6332
   -23.5594 -23.5594 -23.5029 -23.5029   1.1097   1.3152   1.6295   1.8717
     8.9096   9.1888   9.6411   9.7756  10.1662  10.4741  11.0265  11.5503
    12.0284  12.1895  12.7934  13.0357  13.8825  13.9997

          k = 0.2500-0.1443 0.0652 (  9144 PWs)   bands (ev):

   -59.3183 -59.3183 -33.0295 -33.0294 -33.0292 -33.0291 -33.0268 -33.0267
   -33.0263 -33.0262 -33.0014 -33.0013 -33.0013 -33.0006 -33.0006 -33.0004
   -32.9997 -32.9990 -32.9884 -32.9882 -32.9864 -32.9861 -23.5796 -23.5795
   -23.5635 -23.5635 -23.4544 -23.4544   0.2872   0.5719   1.1305   1.5267
     8.5530   9.4015  10.1889  10.2998  10.7755  11.1667  12.3671  12.4865
    12.6153  13.1455  13.1600  13.2680  13.5847  13.6546

          k = 0.4167 0.7217 0.0652 (  9131 PWs)   bands (ev):

   -59.3109 -59.3109 -33.0290 -33.0289 -33.0278 -33.0277 -33.0245 -33.0245
   -33.0244 -33.0244 -33.0028 -33.0025 -33.0019 -33.0018 -33.0009 -33.0007
   -33.0003 -32.9996 -32.9870 -32.9869 -32.9847 -32.9846 -23.6792 -23.6792
   -23.5466 -23.5466 -23.5311 -23.5311   1.8246   1.8955   2.0180   2.0771
     8.2148   8.5200   9.0590   9.0962  10.0645  10.5840  11.1565  11.2656
    11.6910  12.0869  12.1420  12.5825  14.0658  14.3881

          k = 0.4167-0.2406 0.0652 (  9141 PWs)   bands (ev):

   -59.3126 -59.3125 -33.0301 -33.0299 -33.0289 -33.0287 -33.0244 -33.0243
   -33.0240 -33.0239 -33.0025 -33.0021 -33.0017 -33.0016 -33.0012 -33.0010
   -32.9999 -32.9992 -32.9873 -32.9871 -32.9850 -32.9848 -23.6838 -23.6838
   -23.5540 -23.5539 -23.4828 -23.4828   1.4154   1.5671   1.7923   1.9487
     8.0926   8.4514   9.1494   9.2840   9.9935  10.7387  11.6802  11.8173
    12.1037  12.4633  13.2724  13.5491  13.6174  13.9282

     highest occupied level (ev):    14.8030

!    total energy              =   -1273.73788275 Ry
     estimated scf accuracy    <          3.7E-13 Ry

     convergence has been achieved in  10 iterations

     Forces acting on atoms (cartesian axes, Ry/au):

     atom    1 type  1   force =     0.00000000    0.00000000    0.00000000
     atom    2 type  1   force =     0.00000000    0.00000000    0.00000000
     atom    3 type  2   force =    -0.00000000   -0.00000000    0.00223076
     atom    4 type  2   force =     0.00000000    0.00000000   -0.00223076
     atom    5 type  2   force =    -0.00000000    0.00000000    0.00223076
     atom    6 type  2   force =     0.00000000    0.00000000   -0.00223076

     Total force =     0.004462     Total SCF correction =     0.000003


     Computing stress (Cartesian axis) and pressure

          total   stress  (Ry/bohr**3)                   (kbar)     P=       61.54
   0.00049878  -0.00000000   0.00000000           73.37       -0.00        0.00
  -0.00000000   0.00049878   0.00000000           -0.00       73.37        0.00
   0.00000000   0.00000000   0.00025749            0.00        0.00       37.88


     Entering FIRE :       iteration =    10

     FIRE Parameters: P = 0.00000082, dt = 10.00, alpha = 0.200 nsteppos =   5 at step 10


ATOMIC_POSITIONS (crystal)
W                0.3333333430        0.6666666870        0.7500000000
W                0.6666666270        0.3333333130        0.2500000000
Se               0.3333333430        0.6666666870        0.1135993734
Se               0.6666666270        0.3333333130        0.8864006336
Se               0.6666666270        0.3333333130        0.6135993664
Se               0.3333333430        0.6666666870        0.3864006336



     Writing config-only to output data dir ./WSe.save/ :
     XML data file
     NEW-OLD atomic charge density approx. for the potential

     total cpu time spent up to now is       62.7 secs

     Self-consistent Calculation

     iteration #  1     ecut=    80.00 Ry     beta= 0.50
     Davidson diagonalization with overlap
     ethr =  1.00E-06,  avg # of iterations =  4.0

     Threshold (ethr) on eigenvalues was too large:
     Diagonalizing with lowered threshold

     Davidson diagonalization with overlap
     ethr =  8.67E-09,  avg # of iterations =  7.9

     total cpu time spent up to now is       63.9 secs

     total energy              =   -1273.73790502 Ry
     estimated scf accuracy    <       0.00000741 Ry

     iteration #  2     ecut=    80.00 Ry     beta= 0.50
     Davidson diagonalization with overlap
     ethr =  8.05E-09,  avg # of iterations =  5.8

     total cpu time spent up to now is       64.3 secs

     total energy              =   -1273.73790484 Ry
     estimated scf accuracy    <       0.00001609 Ry

     iteration #  3     ecut=    80.00 Ry     beta= 0.50
     Davidson diagonalization with overlap
     ethr =  8.05E-09,  avg # of iterations =  5.2

     total cpu time spent up to now is       64.7 secs

     total energy              =   -1273.73790746 Ry
     estimated scf accuracy    <       0.00000029 Ry

     iteration #  4     ecut=    80.00 Ry     beta= 0.50
     Davidson diagonalization with overlap
     ethr =  3.13E-10,  avg # of iterations =  4.8

     total cpu time spent up to now is       65.1 secs

     total energy              =   -1273.73790749 Ry
     estimated scf accuracy    <       0.00000027 Ry

     iteration #  5     ecut=    80.00 Ry     beta= 0.50
     Davidson diagonalization with overlap
     ethr =  2.93E-10,  avg # of iterations =  3.9

     total cpu time spent up to now is       65.4 secs

     total energy              =   -1273.73790752 Ry
     estimated scf accuracy    <          7.9E-09 Ry

     iteration #  6     ecut=    80.00 Ry     beta= 0.50
     Davidson diagonalization with overlap
     ethr =  8.57E-12,  avg # of iterations =  7.1

     total cpu time spent up to now is       65.9 secs

     total energy              =   -1273.73790753 Ry
     estimated scf accuracy    <       0.00000003 Ry

     iteration #  7     ecut=    80.00 Ry     beta= 0.50
     Davidson diagonalization with overlap
     ethr =  8.57E-12,  avg # of iterations =  4.1

     total cpu time spent up to now is       66.3 secs

     total energy              =   -1273.73790753 Ry
     estimated scf accuracy    <          3.9E-09 Ry

     iteration #  8     ecut=    80.00 Ry     beta= 0.50
     Davidson diagonalization with overlap
     ethr =  4.22E-12,  avg # of iterations =  5.4

     total cpu time spent up to now is       66.7 secs

     total energy              =   -1273.73790753 Ry
     estimated scf accuracy    <          2.3E-09 Ry

     iteration #  9     ecut=    80.00 Ry     beta= 0.50
     Davidson diagonalization with overlap
     ethr =  2.52E-12,  avg # of iterations =  2.2

     total cpu time spent up to now is       67.0 secs

     total energy              =   -1273.73790753 Ry
     estimated scf accuracy    <          4.3E-10 Ry

     iteration # 10     ecut=    80.00 Ry     beta= 0.50
     Davidson diagonalization with overlap
     ethr =  4.66E-13,  avg # of iterations =  4.8

     total cpu time spent up to now is       67.3 secs

     End of self-consistent calculation

          k = 0.0833 0.1443 0.0652 (  9141 PWs)   bands (ev):

   -59.3205 -59.3205 -33.0311 -33.0309 -33.0307 -33.0306 -33.0302 -33.0300
   -33.0296 -33.0295 -33.0021 -33.0021 -33.0016 -33.0015 -33.0010 -33.0006
   -33.0005 -33.0000 -32.9901 -32.9898 -32.9881 -32.9878 -23.5972 -23.5971
   -23.4756 -23.4756 -23.4351 -23.4351  -0.3221  -0.0133   0.7648   1.2472
     7.9045   8.9649  11.0593  11.4577  11.5102  12.3493  12.6475  12.6755
    12.8325  12.9374  13.4434  13.5465  14.3297  14.4179

          k = 0.0833 0.3368 0.0652 (  9132 PWs)   bands (ev):

   -59.3143 -59.3143 -33.0311 -33.0310 -33.0305 -33.0304 -33.0277 -33.0276
   -33.0272 -33.0272 -33.0029 -33.0028 -33.0025 -33.0022 -33.0018 -33.0017
   -33.0009 -33.0002 -32.9889 -32.9887 -32.9867 -32.9864 -23.6020 -23.6020
   -23.5696 -23.5695 -23.4715 -23.4715   0.6380   0.8940   1.3425   1.6748
     8.8177   9.4434   9.7087   9.9040  10.6641  10.7057  11.5891  11.9156
    12.7624  12.8341  12.9636  13.1721  13.7242  13.7660

          k = 0.0833 0.5292 0.0652 (  9140 PWs)   bands (ev):

   -59.3098 -59.3098 -33.0315 -33.0313 -33.0302 -33.0300 -33.0258 -33.0258
   -33.0255 -33.0255 -33.0037 -33.0035 -33.0031 -33.0026 -33.0024 -33.0019
   -33.0011 -33.0004 -32.9879 -32.9878 -32.9857 -32.9855 -23.6927 -23.6926
   -23.5493 -23.5492 -23.4981 -23.4980   1.6319   1.7409   1.9058   2.0055
     7.9743   8.3186   9.0531   9.1556   9.9954  10.7084  11.4296  11.5334
    12.1612  12.4463  12.7973  13.0141  13.8856  14.1591

          k = 0.0833-0.4330 0.0652 (  9130 PWs)   bands (ev):

   -59.3115 -59.3114 -33.0313 -33.0312 -33.0303 -33.0302 -33.0265 -33.0264
   -33.0261 -33.0261 -33.0034 -33.0033 -33.0028 -33.0025 -33.0022 -33.0019
   -33.0010 -33.0003 -32.9883 -32.9881 -32.9860 -32.9858 -23.6596 -23.6596
   -23.5567 -23.5567 -23.4884 -23.4883   1.2149   1.4016   1.6815   1.8920
     8.4744   8.8193   9.3811   9.4623  10.0524  10.7041  11.4147  11.6786
    12.4332  12.5185  12.8524  12.9377  13.8277  13.9524

          k = 0.0833-0.2406 0.0652 (  9146 PWs)   bands (ev):

   -59.3176 -59.3176 -33.0310 -33.0309 -33.0307 -33.0306 -33.0290 -33.0289
   -33.0285 -33.0284 -33.0025 -33.0023 -33.0021 -33.0017 -33.0014 -33.0012
   -33.0008 -33.0001 -32.9895 -32.9893 -32.9874 -32.9872 -23.5844 -23.5843
   -23.5347 -23.5347 -23.4520 -23.4520   0.0901   0.3830   1.0135   1.4373
     8.3773   9.3388  10.5878  10.6725  10.8749  11.6095  12.1034  12.3029
    12.8855  12.9326  13.2585  13.4923  13.8761  13.8858

          k = 0.0833-0.0481 0.0652 (  9128 PWs)   bands (ev):

   -59.3222 -59.3221 -33.0312 -33.0310 -33.0309 -33.0307 -33.0306 -33.0305
   -33.0302 -33.0301 -33.0019 -33.0019 -33.0014 -33.0014 -33.0007 -33.0005
   -33.0001 -33.0000 -32.9905 -32.9901 -32.9884 -32.9881 -23.6046 -23.6045
   -23.4407 -23.4407 -23.4259 -23.4259  -0.5413  -0.2270   0.6327   1.1438
     7.6365   8.7254  11.1968  12.0198  12.0597  12.4673  12.5006  12.7751
    13.3171  13.4038  13.4851  13.5015  14.5441  14.8076

          k = 0.2500 0.4330 0.0652 (  9109 PWs)   bands (ev):

   -59.3098 -59.3098 -33.0302 -33.0301 -33.0291 -33.0290 -33.0268 -33.0268
   -33.0267 -33.0267 -33.0039 -33.0032 -33.0031 -33.0028 -33.0018 -33.0016
   -33.0016 -33.0008 -32.9880 -32.9879 -32.9857 -32.9855 -23.6510 -23.6510
   -23.5493 -23.5493 -23.5408 -23.5408   1.5792   1.7047   1.9035   2.0355
     8.7976   8.8925   9.3252   9.5250  10.2035  10.2254  10.8566  11.1378
    11.4500  11.6191  12.4031  12.8045  14.0048  14.2022

          k = 0.2500 0.6255 0.0652 (  9110 PWs)   bands (ev):

   -59.3086 -59.3086 -33.0297 -33.0296 -33.0285 -33.0284 -33.0268 -33.0268
   -33.0267 -33.0267 -33.0042 -33.0034 -33.0030 -33.0029 -33.0019 -33.0017
   -33.0015 -33.0010 -32.9878 -32.9877 -32.9854 -32.9853 -23.6544 -23.6544
   -23.5691 -23.5690 -23.5438 -23.5438   1.9166   1.9686   2.0697   2.1164
     8.6874   8.8451   8.9928   9.1864  10.1915  10.3733  10.5396  10.7883
    11.3252  11.4489  12.1925  12.5394  14.2334  14.5192

          k = 0.2500-0.3368 0.0652 (  9121 PWs)   bands (ev):

   -59.3119 -59.3119 -33.0308 -33.0307 -33.0299 -33.0298 -33.0271 -33.0270
   -33.0268 -33.0267 -33.0034 -33.0030 -33.0027 -33.0026 -33.0018 -33.0016
   -33.0012 -33.0005 -32.9884 -32.9882 -32.9861 -32.9860 -23.6338 -23.6337
   -23.5587 -23.5587 -23.5032 -23.5032   1.1038   1.3087   1.6233   1.8650
     8.9009   9.1782   9.6400   9.7726  10.1582  10.4658  11.0197  11.5409
    12.0227  12.1817  12.7982  13.0357  13.8788  13.9931

          k = 0.2500-0.1443 0.0652 (  9144 PWs)   bands (ev):

   -59.3164 -59.3164 -33.0312 -33.0310 -33.0308 -33.0307 -33.0284 -33.0283
   -33.0279 -33.0278 -33.0025 -33.0024 -33.0024 -33.0017 -33.0017 -33.0015
   -33.0008 -33.0001 -32.9893 -32.9891 -32.9872 -32.9869 -23.5790 -23.5789
   -23.5639 -23.5639 -23.4545 -23.4545   0.2812   0.5635   1.1280   1.5213
     8.5504   9.3964  10.1790  10.2898  10.7664  11.1581  12.3547  12.4724
    12.6174  13.1318  13.1638  13.2523  13.5853  13.6547

          k = 0.4167 0.7217 0.0652 (  9131 PWs)   bands (ev):

   -59.3090 -59.3090 -33.0307 -33.0305 -33.0294 -33.0293 -33.0262 -33.0261
   -33.0260 -33.0260 -33.0039 -33.0036 -33.0030 -33.0029 -33.0020 -33.0018
   -33.0014 -33.0007 -32.9878 -32.9877 -32.9855 -32.9854 -23.6799 -23.6799
   -23.5458 -23.5458 -23.5314 -23.5314   1.8174   1.8896   2.0097   2.0703
     8.2095   8.5118   9.0539   9.0914  10.0584  10.5758  11.1488  11.2625
    11.6883  12.0794  12.1447  12.5829  14.0642  14.3839

          k = 0.4167-0.2406 0.0652 (  9141 PWs)   bands (ev):

   -59.3107 -59.3107 -33.0317 -33.0315 -33.0305 -33.0303 -33.0260 -33.0259
   -33.0256 -33.0255 -33.0036 -33.0032 -33.0028 -33.0027 -33.0023 -33.0021
   -33.0010 -33.0003 -32.9881 -32.9880 -32.9858 -32.9856 -23.6845 -23.6845
   -23.5532 -23.5532 -23.4830 -23.4830   1.4090   1.5611   1.7848   1.9418
     8.0862   8.4413   9.1486   9.2832   9.9886  10.7281  11.6676  11.8028
    12.1093  12.4671  13.2714  13.5467  13.6106  13.9168

     highest occupied level (ev):    14.8076

!    total energy              =   -1273.73790753 Ry
     estimated scf accuracy    <          1.9E-11 Ry

     convergence has been achieved in  10 iterations

     Forces acting on atoms (cartesian axes, Ry/au):

     atom    1 type  1   force =    -0.00000000   -0.00000000    0.00000000
     atom    2 type  1   force =     0.00000000    0.00000000    0.00000000
     atom    3 type  2   force =    -0.00000000    0.00000000   -0.00011283
     atom    4 type  2   force =     0.00000000   -0.00000000    0.00011283
     atom    5 type  2   force =    -0.00000000    0.00000000   -0.00011283
     atom    6 type  2   force =     0.00000000    0.00000000    0.00011283

     Total force =     0.000226     Total SCF correction =     0.000028
     SCF correction compared to forces is large: reduce conv_thr to get better values


     Computing stress (Cartesian axis) and pressure

          total   stress  (Ry/bohr**3)                   (kbar)     P=       64.44
   0.00051196  -0.00000000   0.00000000           75.31       -0.00        0.00
  -0.00000000   0.00051196  -0.00000000           -0.00       75.31       -0.00
   0.00000000  -0.00000000   0.00029028            0.00       -0.00       42.70


     FIRE: convergence achieved in  10 steps

     End of FIRE minimization

     Final energy =   -1273.7379075280 Ry

Begin final coordinates
     new unit-cell volume =    755.61018 a.u.^3 (   111.96988 Ang^3 )
     density =     10.13676 g/cm^3

CELL_PARAMETERS (angstrom)
   3.230981322   0.000000000   0.000000000
  -1.615490659   2.798111905   0.000000000
   0.000000000   0.000000000  12.385161466

ATOMIC_POSITIONS (crystal)
W                0.3333333430        0.6666666870        0.7500000000
W                0.6666666270        0.3333333130        0.2500000000
Se               0.3333333430        0.6666666870        0.1135993734
Se               0.6666666270        0.3333333130        0.8864006336
Se               0.6666666270        0.3333333130        0.6135993664
Se               0.3333333430        0.6666666870        0.3864006336
End final coordinates



     Writing all to output data dir ./WSe.save/ :
     XML data file, charge density, pseudopotentials, collected wavefunctions
 
     init_run     :      0.37s CPU      0.78s WALL (       1 calls)
     electrons    :     38.16s CPU     58.42s WALL (      11 calls)
     update_pot   :      0.05s CPU      0.57s WALL (      10 calls)
     forces       :      0.97s CPU      1.11s WALL (      11 calls)
     force_london :      0.49s CPU      0.50s WALL (      11 calls)
     stress       :      1.75s CPU      2.00s WALL (      11 calls)
     stres_london :      0.57s CPU      0.58s WALL (      11 calls)

     Called by init_run:
     wfcinit      :      0.07s CPU      0.36s WALL (       1 calls)
     potinit      :      0.00s CPU      0.02s WALL (       1 calls)
     hinit0       :      0.28s CPU      0.35s WALL (       1 calls)

     Called by electrons:
     c_bands      :     33.26s CPU     46.39s WALL (     131 calls)
     sum_band     :      3.25s CPU      4.05s WALL (     131 calls)
     v_of_rho     :      0.59s CPU      0.77s WALL (     136 calls)
     mix_rho      :      0.20s CPU      0.29s WALL (     131 calls)
     energy_londo :      0.46s CPU      0.47s WALL (      11 calls)

     Called by c_bands:
     init_us_2    :      0.25s CPU      0.31s WALL (     855 calls)
     init_us_2:cp :      0.25s CPU      0.31s WALL (     855 calls)
     cegterg      :     31.25s CPU     36.40s WALL (     393 calls)

     Called by *egterg:
     cdiaghg      :      6.75s CPU      7.43s WALL (    2363 calls)
     h_psi        :     20.40s CPU     24.19s WALL (    2414 calls)
     g_psi        :      0.02s CPU      0.02s WALL (    2018 calls)

     Called by h_psi:
     h_psi:calbec :      2.64s CPU      3.25s WALL (    2414 calls)
     vloc_psi     :     16.44s CPU     19.38s WALL (    2414 calls)
     add_vuspsi   :      1.24s CPU      1.45s WALL (    2414 calls)

     General routines
     calbec       :      2.94s CPU      3.64s WALL (    2579 calls)
     fft          :      0.83s CPU      1.07s WALL (    1640 calls)
     ffts         :      0.04s CPU      0.06s WALL (     131 calls)
     fftw         :     18.15s CPU     21.35s WALL (  126218 calls)
 
     Parallel routines
     fft_scatt_xy :      1.52s CPU      1.78s WALL (  127989 calls)
     fft_scatt_yz :     13.40s CPU     15.96s WALL (  127989 calls)
 
     PWSCF        :     41.65s CPU   1m17.37s WALL

 
   This run was terminated on:  17: 7: 3   5Nov2024            

=------------------------------------------------------------------------------=
   JOB DONE.
=------------------------------------------------------------------------------=
