
     Program PWSCF v.7.3 starts on  5Nov2024 at 17: 9:20 

     This program is part of the open-source Quantum ESPRESSO suite
     for quantum simulation of materials; please cite
         "P. Giannozzi et al., J. Phys.:Condens. Matter 21 395502 (2009);
         "P. Giannozzi et al., J. Phys.:Condens. Matter 29 465901 (2017);
         "P. Giannozzi et al., J. Chem. Phys. 152 154105 (2020);
          URL http://www.quantum-espresso.org", 
     in publications or presentations arising from this work. More details at
     http://www.quantum-espresso.org/quote

     Parallel version (MPI & OpenMP), running on     256 processor cores
     Number of MPI processes:               256
     Threads/MPI process:                     1

     MPI processes distributed on     1 nodes
     492759 MiB available memory on the printing compute node when the environment starts
 
     Waiting for input...
     Reading input from standard input

     Current dimensions of program PWSCF are:
     Max number of different atomic species (ntypx) = 10
     Max number of k-points (npk) =  40000
     Max angular momentum in pseudopotentials (lmaxx) =  4

     File ./WSe.fire deleted, as requested
 
     K-points division:     npool     =       4
     R & G space division:  proc/nbgrp/npool/nimage =      64
     Subspace diagonalization in iterative solution of the eigenvalue problem:
     one sub-group per band group will be used
     scalapack distributed-memory algorithm (size of sub-group:  4*  4 procs)

 
     Parallelization info
     --------------------
     sticks:   dense  smooth     PW     G-vecs:    dense   smooth      PW
     Min         115     115     30                10267    10267    1360
     Max         116     116     31                10276    10276    1368
     Sum        7399    7399   1921               657343   657343   87345
 
     Using Pencil Decomposition
 


     bravais-lattice index     =            0
     lattice parameter (alat)  =      18.3170  a.u.
     unit-cell volume          =    6800.4918 (a.u.)^3
     number of atoms/cell      =           54
     number of atomic types    =            2
     number of electrons       =       828.00
     number of Kohn-Sham states=          414
     kinetic-energy cutoff     =      80.0000  Ry
     charge density cutoff     =     320.0000  Ry
     scf convergence threshold =      1.0E-10
     mixing beta               =       0.5000
     number of iterations used =            8  plain     mixing
     Exchange-correlation= PBE
                           (   1   4   3   4   0   0   0)

     celldm(1)=  18.317010  celldm(2)=   0.000000  celldm(3)=   0.000000
     celldm(4)=   0.000000  celldm(5)=   0.000000  celldm(6)=   0.000000

     crystal axes: (cart. coord. in units of alat)
               a(1) = (   1.000000   0.000000   0.000000 )  
               a(2) = (  -0.500000   0.866025   0.000000 )  
               a(3) = (   0.000000   0.000000   1.277750 )  

     reciprocal axes: (cart. coord. in units 2 pi/alat)
               b(1) = (  1.000000  0.577350  0.000000 )  
               b(2) = (  0.000000  1.154701  0.000000 )  
               b(3) = (  0.000000  0.000000  0.782626 )  


     PseudoPot. # 1 for W  read from file:
     /users/rkarkee/pbe_pseudo/W.upf
     MD5 check sum: cb94e439a9e4ea809831d6e90c63864e
     Pseudo is Norm-conserving + core correction, Zval = 14.0
     Generated using ONCVPSP code by D. R. Hamann
     Using radial grid of 1396 points,  8 beta functions with: 
                l(1) =   0
                l(2) =   0
                l(3) =   1
                l(4) =   1
                l(5) =   2
                l(6) =   2
                l(7) =   3
                l(8) =   3

     PseudoPot. # 2 for Se read from file:
     /users/rkarkee/pbe_pseudo/Se.upf
     MD5 check sum: 3cc46b3642295b3f4fdae63b742ce36d
     Pseudo is Norm-conserving + core correction, Zval = 16.0
     Generated using ONCVPSP code by D. R. Hamann
     Using radial grid of 1214 points,  6 beta functions with: 
                l(1) =   0
                l(2) =   0
                l(3) =   1
                l(4) =   1
                l(5) =   2
                l(6) =   2

     atomic species   valence    mass     pseudopotential
     W                14.00   183.84000     W ( 1.00)
     Se               16.00    78.96000     Se( 1.00)

     No symmetry found



   Cartesian axes

     site n.     atom                  positions (alat units)
         1        W      tau(   1) = (   0.0006729   0.1924501   0.9591725  )
         2        W      tau(   2) = (   0.3333333   0.1924501   0.9583127  )
         3        W      tau(   3) = (   0.6666667   0.1924501   0.9583127  )
         4        W      tau(   4) = (  -0.1666667   0.4811252   0.9583127  )
         5        W      tau(   5) = (   0.1666667   0.4811252   0.9583127  )
         6        W      tau(   6) = (   0.5000000   0.4811252   0.9583127  )
         7        W      tau(   7) = (  -0.3333333   0.7698004   0.9583127  )
         8        W      tau(   8) = (   0.0000000   0.7698004   0.9583127  )
         9        W      tau(   9) = (   0.3333333   0.7698004   0.9583127  )
        10        W      tau(  10) = (   0.1666667   0.0962250   0.3194376  )
        11        W      tau(  11) = (   0.5000000   0.0962250   0.3194376  )
        12        W      tau(  12) = (   0.8333333   0.0962250   0.3194376  )
        13        W      tau(  13) = (  -0.0000000   0.3849002   0.3194376  )
        14        W      tau(  14) = (   0.3333333   0.3849002   0.3194376  )
        15        W      tau(  15) = (   0.6666667   0.3849002   0.3194376  )
        16        W      tau(  16) = (  -0.1666667   0.6735753   0.3194376  )
        17        W      tau(  17) = (   0.1666667   0.6735753   0.3194376  )
        18        W      tau(  18) = (   0.5000000   0.6735753   0.3194376  )
        19        Se     tau(  19) = (  -0.0000000   0.1924501   0.1451516  )
        20        Se     tau(  20) = (   0.3333333   0.1924501   0.1451516  )
        21        Se     tau(  21) = (   0.6666667   0.1924501   0.1451516  )
        22        Se     tau(  22) = (  -0.1666667   0.4811252   0.1451516  )
        23        Se     tau(  23) = (   0.1666667   0.4811252   0.1451516  )
        24        Se     tau(  24) = (   0.5000000   0.4811252   0.1451516  )
        25        Se     tau(  25) = (  -0.3333333   0.7698004   0.1451516  )
        26        Se     tau(  26) = (   0.0000000   0.7698004   0.1451516  )
        27        Se     tau(  27) = (   0.3333333   0.7698004   0.1451516  )
        28        Se     tau(  28) = (   0.1666667   0.0962250   1.1325986  )
        29        Se     tau(  29) = (   0.5000000   0.0962250   1.1325986  )
        30        Se     tau(  30) = (   0.8333333   0.0962250   1.1325986  )
        31        Se     tau(  31) = (  -0.0000000   0.3849002   1.1325986  )
        32        Se     tau(  32) = (   0.3333333   0.3849002   1.1325986  )
        33        Se     tau(  33) = (   0.6666667   0.3849002   1.1325986  )
        34        Se     tau(  34) = (  -0.1666667   0.6735753   1.1325986  )
        35        Se     tau(  35) = (   0.1666667   0.6735753   1.1325986  )
        36        Se     tau(  36) = (   0.5000000   0.6735753   1.1325986  )
        37        Se     tau(  37) = (   0.1666667   0.0962250   0.7840267  )
        38        Se     tau(  38) = (   0.5000000   0.0962250   0.7840267  )
        39        Se     tau(  39) = (   0.8333333   0.0962250   0.7840267  )
        40        Se     tau(  40) = (  -0.0000000   0.3849002   0.7840267  )
        41        Se     tau(  41) = (   0.3333333   0.3849002   0.7840267  )
        42        Se     tau(  42) = (   0.6666667   0.3849002   0.7840267  )
        43        Se     tau(  43) = (  -0.1666667   0.6735753   0.7840267  )
        44        Se     tau(  44) = (   0.1666667   0.6735753   0.7840267  )
        45        Se     tau(  45) = (   0.5000000   0.6735753   0.7840267  )
        46        Se     tau(  46) = (  -0.0000000   0.1924501   0.4937235  )
        47        Se     tau(  47) = (   0.3333333   0.1924501   0.4937235  )
        48        Se     tau(  48) = (   0.6666667   0.1924501   0.4937235  )
        49        Se     tau(  49) = (  -0.1666667   0.4811252   0.4937235  )
        50        Se     tau(  50) = (   0.1666667   0.4811252   0.4937235  )
        51        Se     tau(  51) = (   0.5000000   0.4811252   0.4937235  )
        52        Se     tau(  52) = (  -0.3333333   0.7698004   0.4937235  )
        53        Se     tau(  53) = (   0.0000000   0.7698004   0.4937235  )
        54        Se     tau(  54) = (   0.3333333   0.7698004   0.4937235  )

     -------------------------------------------------
     Parameters for Dispersion (Grimme-D2) Correction:
     -------------------------------------------------
       atom      VdW radius       C_6     

        W          3.349       2818.308
        Se         3.347        438.498

     number of k points=    12
                       cart. coord. in units 2pi/alat
        k(    1) = (   0.2500000   0.4330127   0.1956564), wk =   0.1666667
        k(    2) = (   0.2500000  -0.1443376   0.1956564), wk =   0.1666667
        k(    3) = (  -0.2500000  -0.4330127   0.1956564), wk =   0.1666667
        k(    4) = (  -0.2500000   0.4330127  -0.1956564), wk =   0.1666667
        k(    5) = (   0.2500000  -0.4330127  -0.1956564), wk =   0.1666667
        k(    6) = (   0.5000000  -0.0000000   0.1956564), wk =   0.1666667
        k(    7) = (  -0.5000000   0.0000000   0.1956564), wk =   0.1666667
        k(    8) = (  -0.2500000   0.1443376   0.1956564), wk =   0.1666667
        k(    9) = (  -0.2500000  -0.1443376  -0.1956564), wk =   0.1666667
        k(   10) = (   0.2500000   0.1443376  -0.1956564), wk =   0.1666667
        k(   11) = (   0.0000000  -0.2886751   0.1956564), wk =   0.1666667
        k(   12) = (   0.0000000   0.2886751   0.1956564), wk =   0.1666667

     Dense  grid:   657343 G-vectors     FFT dimensions: ( 108, 108, 135)

     Estimated max dynamical RAM per process >     112.37 MB

     Estimated total dynamical RAM >      27.62 GB

     Initial potential from superposition of free atoms

     starting charge     827.9882, renormalised to     828.0000
     Starting wfcs are  504 randomized atomic wfcs

     total cpu time spent up to now is       13.4 secs

     Self-consistent Calculation

     iteration #  1     ecut=    80.00 Ry     beta= 0.50
     Davidson diagonalization with overlap
     ethr =  1.00E-02,  avg # of iterations =  2.0

     Threshold (ethr) on eigenvalues was too large:
     Diagonalizing with lowered threshold

     Davidson diagonalization with overlap
     ethr =  1.04E-04,  avg # of iterations =  5.0

     total cpu time spent up to now is       86.0 secs

     total energy              =  -11463.29220018 Ry
     estimated scf accuracy    <       1.40992602 Ry

     iteration #  2     ecut=    80.00 Ry     beta= 0.50
     Davidson diagonalization with overlap
     ethr =  1.70E-04,  avg # of iterations =  5.5

     total cpu time spent up to now is      123.1 secs

     total energy              =  -11463.30900367 Ry
     estimated scf accuracy    <       1.57541792 Ry

     iteration #  3     ecut=    80.00 Ry     beta= 0.50
     Davidson diagonalization with overlap
     ethr =  1.70E-04,  avg # of iterations =  6.0

     total cpu time spent up to now is      157.7 secs

     total energy              =  -11463.62193028 Ry
     estimated scf accuracy    <       0.14038829 Ry

     iteration #  4     ecut=    80.00 Ry     beta= 0.50
     Davidson diagonalization with overlap
     ethr =  1.70E-05,  avg # of iterations =  5.1

     total cpu time spent up to now is      189.7 secs

     total energy              =  -11463.62954646 Ry
     estimated scf accuracy    <       0.03029170 Ry

     iteration #  5     ecut=    80.00 Ry     beta= 0.50
     Davidson diagonalization with overlap
     ethr =  3.66E-06,  avg # of iterations =  6.0

     total cpu time spent up to now is      230.4 secs

     total energy              =  -11463.64022098 Ry
     estimated scf accuracy    <       0.03573375 Ry

     iteration #  6     ecut=    80.00 Ry     beta= 0.50
     Davidson diagonalization with overlap
     ethr =  3.66E-06,  avg # of iterations =  3.0

     total cpu time spent up to now is      257.9 secs

     total energy              =  -11463.63734319 Ry
     estimated scf accuracy    <       0.01208177 Ry

     iteration #  7     ecut=    80.00 Ry     beta= 0.50
     Davidson diagonalization with overlap
     ethr =  1.46E-06,  avg # of iterations =  6.0

     total cpu time spent up to now is      297.1 secs

     total energy              =  -11463.64175410 Ry
     estimated scf accuracy    <       0.00871112 Ry

     iteration #  8     ecut=    80.00 Ry     beta= 0.50
     Davidson diagonalization with overlap
     ethr =  1.05E-06,  avg # of iterations =  2.0

     total cpu time spent up to now is      322.1 secs

     total energy              =  -11463.64024953 Ry
     estimated scf accuracy    <       0.00729465 Ry

     iteration #  9     ecut=    80.00 Ry     beta= 0.50
     Davidson diagonalization with overlap
     ethr =  8.81E-07,  avg # of iterations =  3.0

     total cpu time spent up to now is      350.7 secs

     total energy              =  -11463.64082235 Ry
     estimated scf accuracy    <       0.00063850 Ry

     iteration # 10     ecut=    80.00 Ry     beta= 0.50
     Davidson diagonalization with overlap
     ethr =  7.71E-08,  avg # of iterations =  6.0

     total cpu time spent up to now is      391.8 secs

     total energy              =  -11463.64102494 Ry
     estimated scf accuracy    <       0.00026232 Ry

     iteration # 11     ecut=    80.00 Ry     beta= 0.50
     Davidson diagonalization with overlap
     ethr =  3.17E-08,  avg # of iterations =  3.2

     total cpu time spent up to now is      420.8 secs

     total energy              =  -11463.64104214 Ry
     estimated scf accuracy    <       0.00003303 Ry

     iteration # 12     ecut=    80.00 Ry     beta= 0.50
     Davidson diagonalization with overlap
     ethr =  3.99E-09,  avg # of iterations =  6.0

     total cpu time spent up to now is      461.9 secs

     total energy              =  -11463.64105170 Ry
     estimated scf accuracy    <       0.00002524 Ry

     iteration # 13     ecut=    80.00 Ry     beta= 0.50
     Davidson diagonalization with overlap
     ethr =  3.05E-09,  avg # of iterations =  2.0

     total cpu time spent up to now is      488.4 secs

     total energy              =  -11463.64105008 Ry
     estimated scf accuracy    <       0.00001031 Ry

     iteration # 14     ecut=    80.00 Ry     beta= 0.50
     Davidson diagonalization with overlap
     ethr =  1.25E-09,  avg # of iterations =  6.7

     total cpu time spent up to now is      526.3 secs

     total energy              =  -11463.64105269 Ry
     estimated scf accuracy    <       0.00000304 Ry

     iteration # 15     ecut=    80.00 Ry     beta= 0.50
     Davidson diagonalization with overlap
     ethr =  3.67E-10,  avg # of iterations =  2.0

     total cpu time spent up to now is      551.5 secs

     total energy              =  -11463.64105236 Ry
     estimated scf accuracy    <       0.00000263 Ry

     iteration # 16     ecut=    80.00 Ry     beta= 0.50
     Davidson diagonalization with overlap
     ethr =  3.17E-10,  avg # of iterations =  5.3

     total cpu time spent up to now is      579.5 secs

     total energy              =  -11463.64105229 Ry
     estimated scf accuracy    <       0.00000094 Ry

     iteration # 17     ecut=    80.00 Ry     beta= 0.50
     Davidson diagonalization with overlap
     ethr =  1.13E-10,  avg # of iterations =  6.0

     total cpu time spent up to now is      616.4 secs

     total energy              =  -11463.64105250 Ry
     estimated scf accuracy    <       0.00000022 Ry

     iteration # 18     ecut=    80.00 Ry     beta= 0.50
     Davidson diagonalization with overlap
     ethr =  2.62E-11,  avg # of iterations =  2.2

     total cpu time spent up to now is      643.4 secs

     total energy              =  -11463.64105248 Ry
     estimated scf accuracy    <       0.00000016 Ry

     iteration # 19     ecut=    80.00 Ry     beta= 0.50
     Davidson diagonalization with overlap
     ethr =  1.98E-11,  avg # of iterations =  6.1

     total cpu time spent up to now is      672.6 secs

     total energy              =  -11463.64105248 Ry
     estimated scf accuracy    <       0.00000004 Ry

     iteration # 20     ecut=    80.00 Ry     beta= 0.50
     Davidson diagonalization with overlap
     ethr =  4.63E-12,  avg # of iterations =  6.6

     total cpu time spent up to now is      711.6 secs

     total energy              =  -11463.64105249 Ry
     estimated scf accuracy    <       0.00000002 Ry

     iteration # 21     ecut=    80.00 Ry     beta= 0.50
     Davidson diagonalization with overlap
     ethr =  2.41E-12,  avg # of iterations =  2.6

     total cpu time spent up to now is      737.3 secs

     total energy              =  -11463.64105249 Ry
     estimated scf accuracy    <       0.00000001 Ry

     iteration # 22     ecut=    80.00 Ry     beta= 0.50
     Davidson diagonalization with overlap
     ethr =  1.43E-12,  avg # of iterations =  6.8

     total cpu time spent up to now is      770.1 secs

     total energy              =  -11463.64105249 Ry
     estimated scf accuracy    <          1.6E-09 Ry

     iteration # 23     ecut=    80.00 Ry     beta= 0.50
     Davidson diagonalization with overlap
     ethr =  1.94E-13,  avg # of iterations =  6.0

     total cpu time spent up to now is      808.2 secs

     total energy              =  -11463.64105249 Ry
     estimated scf accuracy    <          1.3E-09 Ry

     iteration # 24     ecut=    80.00 Ry     beta= 0.50
     Davidson diagonalization with overlap
     ethr =  1.54E-13,  avg # of iterations =  2.0

     total cpu time spent up to now is      832.9 secs

     total energy              =  -11463.64105249 Ry
     estimated scf accuracy    <          8.7E-10 Ry

     iteration # 25     ecut=    80.00 Ry     beta= 0.50
     Davidson diagonalization with overlap
     ethr =  1.05E-13,  avg # of iterations =  7.1

     total cpu time spent up to now is      868.0 secs

     total energy              =  -11463.64105249 Ry
     estimated scf accuracy    <          2.9E-10 Ry

     iteration # 26     ecut=    80.00 Ry     beta= 0.50
     Davidson diagonalization with overlap
     ethr =  1.00E-13,  avg # of iterations =  2.0

     total cpu time spent up to now is      892.5 secs

     total energy              =  -11463.64105249 Ry
     estimated scf accuracy    <          1.5E-10 Ry

     iteration # 27     ecut=    80.00 Ry     beta= 0.50
     Davidson diagonalization with overlap
     ethr =  1.00E-13,  avg # of iterations =  1.0

     total cpu time spent up to now is      914.5 secs

     End of self-consistent calculation

          k = 0.2500 0.4330 0.1957 ( 82195 PWs)   bands (ev):

   -59.3205 -59.3205 -59.3178 -59.3177 -59.3176 -59.3174 -59.3122 -59.3119
   -59.3119 -59.3117 -59.3101 -59.3099 -59.3098 -59.3098 -59.3098 -59.3094
   -59.3090 -59.3089 -33.0343 -33.0340 -33.0322 -33.0320 -33.0315 -33.0314
   -33.0314 -33.0313 -33.0311 -33.0310 -33.0310 -33.0309 -33.0309 -33.0308
   -33.0308 -33.0308 -33.0307 -33.0307 -33.0307 -33.0306 -33.0306 -33.0304
   -33.0304 -33.0302 -33.0302 -33.0301 -33.0301 -33.0301 -33.0300 -33.0299
   -33.0298 -33.0298 -33.0297 -33.0296 -33.0295 -33.0294 -33.0293 -33.0292
   -33.0291 -33.0290 -33.0290 -33.0289 -33.0289 -33.0287 -33.0284 -33.0284
   -33.0279 -33.0275 -33.0274 -33.0271 -33.0271 -33.0270 -33.0268 -33.0268
   -33.0267 -33.0267 -33.0266 -33.0266 -33.0263 -33.0263 -33.0262 -33.0261
   -33.0259 -33.0259 -33.0258 -33.0257 -33.0255 -33.0255 -33.0254 -33.0251
   -33.0237 -33.0232 -33.0068 -33.0063 -33.0048 -33.0043 -33.0039 -33.0039
   -33.0038 -33.0037 -33.0036 -33.0035 -33.0034 -33.0033 -33.0033 -33.0032
   -33.0031 -33.0031 -33.0030 -33.0030 -33.0029 -33.0029 -33.0028 -33.0028
   -33.0027 -33.0027 -33.0026 -33.0025 -33.0025 -33.0024 -33.0024 -33.0023
   -33.0022 -33.0021 -33.0021 -33.0021 -33.0020 -33.0020 -33.0019 -33.0019
   -33.0018 -33.0018 -33.0017 -33.0017 -33.0017 -33.0016 -33.0016 -33.0015
   -33.0015 -33.0015 -33.0014 -33.0014 -33.0013 -33.0012 -33.0012 -33.0011
   -33.0011 -33.0010 -33.0009 -33.0009 -33.0008 -33.0007 -33.0006 -33.0006
   -33.0005 -33.0004 -33.0004 -33.0003 -33.0001 -32.9999 -32.9997 -32.9992
   -32.9978 -32.9974 -32.9920 -32.9902 -32.9899 -32.9897 -32.9895 -32.9894
   -32.9893 -32.9887 -32.9884 -32.9883 -32.9883 -32.9881 -32.9880 -32.9880
   -32.9879 -32.9879 -32.9878 -32.9878 -32.9877 -32.9875 -32.9874 -32.9872
   -32.9872 -32.9866 -32.9863 -32.9861 -32.9860 -32.9857 -32.9857 -32.9856
   -32.9856 -32.9855 -32.9854 -32.9854 -32.9850 -32.9830 -23.6928 -23.6927
   -23.6926 -23.6924 -23.6800 -23.6799 -23.6510 -23.6509 -23.6341 -23.6338
   -23.6337 -23.6335 -23.5972 -23.5971 -23.5845 -23.5844 -23.5843 -23.5842
   -23.5590 -23.5587 -23.5587 -23.5584 -23.5496 -23.5493 -23.5493 -23.5492
   -23.5492 -23.5489 -23.5458 -23.5458 -23.5409 -23.5408 -23.5350 -23.5347
   -23.5347 -23.5344 -23.5314 -23.5313 -23.5033 -23.5032 -23.5032 -23.5030
   -23.4983 -23.4981 -23.4980 -23.4978 -23.4756 -23.4755 -23.4522 -23.4520
   -23.4520 -23.4517 -23.4352 -23.4351  -0.3222  -0.0133   0.0897   0.0906
     0.3826   0.3835   0.7648   1.0131   1.0139   1.1033   1.1044   1.2473
     1.3082   1.3093   1.4368   1.4377   1.5791   1.6227   1.6237   1.6314
     1.6321   1.7047   1.7404   1.7414   1.8175   1.8644   1.8654   1.8895
     1.9033   1.9054   1.9065   2.0050   2.0063   2.0098   2.0357   2.0701
     7.9045   7.9741   7.9747   8.2092   8.3185   8.3191   8.3766   8.3779
     8.5115   8.7976   8.8925   8.9003   8.9014   8.9648   9.0526   9.0531
     9.0543   9.0917   9.1550   9.1557   9.1777   9.1784   9.3247   9.3381
     9.3395   9.5246   9.6396   9.6403   9.7720   9.7731   9.9949   9.9956
    10.0587  10.1579  10.1590  10.2037  10.2253  10.4657  10.4664  10.5761
    10.5875  10.5883  10.6716  10.6734  10.7079  10.7085  10.8569  10.8737
    10.8760  11.0190  11.0204  11.0596  11.1378  11.1491  11.2625  11.4290
    11.4303  11.4501  11.4575  11.5099  11.5326  11.5335  11.5408  11.5413
    11.6087  11.6107  11.6187  11.6884  12.0222  12.0231  12.0795  12.1025
    12.1043  12.1444  12.1605  12.1619  12.1810  12.1821  12.3014  12.3040
    12.3501  12.4032  12.4461  12.4470  12.5823  12.6478  12.6757  12.7969
    12.7973  12.7981  12.7986  12.8045  12.8318  12.8843  12.8867  12.9315
    12.9336  12.9368  13.0135  13.0144  13.0354  13.0359  13.2580  13.2585
    13.4439  13.4921  13.4926  13.5465  13.8749  13.8757  13.8786  13.8790
    13.8847  13.8856  13.8864  13.8878  13.9927  13.9934  14.0049  14.0641
    14.1587  14.1598  14.2023  14.3297  14.3837  14.4183

          k = 0.2500-0.1443 0.1957 ( 82157 PWs)   bands (ev):

   -59.3222 -59.3222 -59.3164 -59.3164 -59.3144 -59.3143 -59.3143 -59.3143
   -59.3115 -59.3115 -59.3114 -59.3114 -59.3107 -59.3106 -59.3086 -59.3086
   -59.3085 -59.3085 -33.0343 -33.0340 -33.0324 -33.0321 -33.0317 -33.0316
   -33.0314 -33.0314 -33.0313 -33.0313 -33.0312 -33.0311 -33.0311 -33.0311
   -33.0310 -33.0309 -33.0308 -33.0307 -33.0307 -33.0306 -33.0305 -33.0305
   -33.0305 -33.0304 -33.0304 -33.0303 -33.0302 -33.0302 -33.0301 -33.0301
   -33.0300 -33.0297 -33.0297 -33.0297 -33.0296 -33.0291 -33.0289 -33.0285
   -33.0285 -33.0285 -33.0284 -33.0282 -33.0279 -33.0279 -33.0277 -33.0277
   -33.0276 -33.0275 -33.0273 -33.0273 -33.0272 -33.0272 -33.0269 -33.0268
   -33.0268 -33.0268 -33.0266 -33.0266 -33.0266 -33.0265 -33.0265 -33.0263
   -33.0262 -33.0261 -33.0261 -33.0260 -33.0256 -33.0255 -33.0255 -33.0252
   -33.0237 -33.0235 -33.0068 -33.0063 -33.0048 -33.0044 -33.0041 -33.0039
   -33.0037 -33.0035 -33.0035 -33.0034 -33.0033 -33.0032 -33.0032 -33.0031
   -33.0031 -33.0030 -33.0030 -33.0029 -33.0029 -33.0029 -33.0028 -33.0027
   -33.0027 -33.0026 -33.0026 -33.0025 -33.0025 -33.0024 -33.0024 -33.0023
   -33.0023 -33.0023 -33.0022 -33.0021 -33.0021 -33.0020 -33.0020 -33.0019
   -33.0019 -33.0018 -33.0018 -33.0018 -33.0017 -33.0017 -33.0017 -33.0016
   -33.0016 -33.0016 -33.0015 -33.0014 -33.0014 -33.0013 -33.0012 -33.0011
   -33.0010 -33.0009 -33.0009 -33.0009 -33.0008 -33.0007 -33.0006 -33.0005
   -33.0004 -33.0003 -33.0002 -33.0001 -33.0000 -32.9999 -32.9998 -32.9992
   -32.9978 -32.9973 -32.9920 -32.9904 -32.9901 -32.9895 -32.9892 -32.9890
   -32.9888 -32.9888 -32.9887 -32.9885 -32.9883 -32.9882 -32.9882 -32.9881
   -32.9880 -32.9879 -32.9878 -32.9877 -32.9877 -32.9874 -32.9871 -32.9870
   -32.9867 -32.9866 -32.9865 -32.9862 -32.9861 -32.9859 -32.9859 -32.9858
   -32.9855 -32.9854 -32.9854 -32.9853 -32.9850 -32.9830 -23.6846 -23.6845
   -23.6599 -23.6596 -23.6596 -23.6593 -23.6548 -23.6544 -23.6544 -23.6539
   -23.6046 -23.6045 -23.6022 -23.6020 -23.6020 -23.6016 -23.5790 -23.5789
   -23.5697 -23.5696 -23.5695 -23.5695 -23.5692 -23.5690 -23.5690 -23.5688
   -23.5640 -23.5639 -23.5567 -23.5567 -23.5567 -23.5566 -23.5532 -23.5532
   -23.5438 -23.5438 -23.5438 -23.5438 -23.4886 -23.4883 -23.4883 -23.4882
   -23.4830 -23.4829 -23.4717 -23.4715 -23.4715 -23.4713 -23.4545 -23.4545
   -23.4408 -23.4407 -23.4259 -23.4258  -0.5413  -0.2269   0.2813   0.5635
     0.6325   0.6377   0.6384   0.8935   0.8944   1.1279   1.1437   1.2144
     1.2152   1.3421   1.3430   1.4011   1.4020   1.4092   1.5211   1.5612
     1.6744   1.6753   1.6810   1.6822   1.7846   1.8914   1.8926   1.9162
     1.9170   1.9416   1.9681   1.9693   2.0692   2.0702   2.1157   2.1172
     7.6365   8.0859   8.4411   8.4745   8.4747   8.5506   8.6873   8.6875
     8.7254   8.8169   8.8179   8.8190   8.8194   8.8452   8.8454   8.9924
     8.9931   9.1486   9.1859   9.1870   9.2835   9.3811   9.3816   9.3960
     9.4434   9.4449   9.4618   9.4623   9.7086   9.7093   9.9026   9.9035
     9.9889  10.0520  10.0526  10.1787  10.1913  10.1917  10.2908  10.3725
    10.3735  10.5396  10.5399  10.6636  10.6640  10.7035  10.7044  10.7058
    10.7062  10.7284  10.7657  10.7880  10.7883  11.1580  11.1967  11.3249
    11.3254  11.4131  11.4147  11.4488  11.4493  11.5889  11.5897  11.6681
    11.6781  11.6788  11.8033  11.9146  11.9161  12.0201  12.0600  12.1090
    12.1915  12.1934  12.3553  12.4332  12.4341  12.4665  12.4668  12.4733
    12.5002  12.5182  12.5188  12.5390  12.5403  12.6174  12.7620  12.7634
    12.7744  12.8334  12.8342  12.8525  12.8531  12.9381  12.9386  12.9626
    12.9639  13.1316  13.1640  13.1717  13.1727  13.2521  13.2708  13.3183
    13.4050  13.4839  13.5011  13.5462  13.5841  13.6107  13.6547  13.7229
    13.7258  13.7649  13.7687  13.8267  13.8276  13.9169  13.9524  13.9531
    14.2334  14.2338  14.5186  14.5198  14.5440  14.8075

          k =-0.2500-0.4330 0.1957 ( 82195 PWs)   bands (ev):

   -59.3205 -59.3205 -59.3178 -59.3177 -59.3176 -59.3174 -59.3122 -59.3119
   -59.3119 -59.3117 -59.3101 -59.3099 -59.3098 -59.3098 -59.3098 -59.3094
   -59.3090 -59.3089 -33.0343 -33.0340 -33.0322 -33.0320 -33.0315 -33.0314
   -33.0314 -33.0313 -33.0311 -33.0310 -33.0310 -33.0309 -33.0309 -33.0308
   -33.0308 -33.0308 -33.0307 -33.0307 -33.0307 -33.0306 -33.0306 -33.0304
   -33.0304 -33.0302 -33.0302 -33.0301 -33.0301 -33.0301 -33.0300 -33.0299
   -33.0298 -33.0298 -33.0297 -33.0296 -33.0295 -33.0294 -33.0293 -33.0292
   -33.0291 -33.0290 -33.0290 -33.0290 -33.0289 -33.0287 -33.0284 -33.0284
   -33.0279 -33.0275 -33.0274 -33.0271 -33.0271 -33.0270 -33.0268 -33.0268
   -33.0267 -33.0267 -33.0266 -33.0266 -33.0263 -33.0263 -33.0262 -33.0261
   -33.0259 -33.0259 -33.0258 -33.0257 -33.0255 -33.0255 -33.0254 -33.0251
   -33.0237 -33.0232 -33.0068 -33.0063 -33.0048 -33.0043 -33.0039 -33.0039
   -33.0038 -33.0037 -33.0036 -33.0034 -33.0034 -33.0033 -33.0032 -33.0032
   -33.0032 -33.0031 -33.0031 -33.0030 -33.0029 -33.0029 -33.0028 -33.0027
   -33.0027 -33.0026 -33.0026 -33.0025 -33.0025 -33.0024 -33.0023 -33.0023
   -33.0022 -33.0022 -33.0021 -33.0021 -33.0020 -33.0019 -33.0019 -33.0019
   -33.0018 -33.0018 -33.0017 -33.0017 -33.0017 -33.0017 -33.0016 -33.0016
   -33.0015 -33.0015 -33.0014 -33.0014 -33.0013 -33.0012 -33.0012 -33.0011
   -33.0011 -33.0010 -33.0009 -33.0009 -33.0008 -33.0007 -33.0006 -33.0006
   -33.0005 -33.0004 -33.0004 -33.0003 -33.0001 -32.9999 -32.9997 -32.9992
   -32.9978 -32.9974 -32.9920 -32.9901 -32.9899 -32.9896 -32.9895 -32.9894
   -32.9893 -32.9887 -32.9884 -32.9883 -32.9883 -32.9882 -32.9880 -32.9880
   -32.9879 -32.9879 -32.9878 -32.9878 -32.9877 -32.9875 -32.9873 -32.9873
   -32.9872 -32.9866 -32.9863 -32.9861 -32.9860 -32.9857 -32.9857 -32.9856
   -32.9856 -32.9855 -32.9854 -32.9854 -32.9850 -32.9830 -23.6928 -23.6927
   -23.6926 -23.6924 -23.6800 -23.6799 -23.6510 -23.6509 -23.6341 -23.6338
   -23.6337 -23.6335 -23.5972 -23.5971 -23.5845 -23.5844 -23.5843 -23.5842
   -23.5590 -23.5587 -23.5587 -23.5584 -23.5496 -23.5493 -23.5493 -23.5492
   -23.5492 -23.5489 -23.5458 -23.5458 -23.5409 -23.5408 -23.5350 -23.5347
   -23.5347 -23.5344 -23.5314 -23.5313 -23.5033 -23.5032 -23.5032 -23.5030
   -23.4983 -23.4981 -23.4980 -23.4978 -23.4756 -23.4755 -23.4522 -23.4520
   -23.4520 -23.4517 -23.4352 -23.4351  -0.3222  -0.0133   0.0897   0.0906
     0.3826   0.3835   0.7648   1.0131   1.0139   1.1033   1.1044   1.2473
     1.3082   1.3093   1.4368   1.4377   1.5791   1.6227   1.6237   1.6314
     1.6322   1.7047   1.7404   1.7414   1.8175   1.8644   1.8654   1.8895
     1.9033   1.9054   1.9065   2.0049   2.0061   2.0100   2.0357   2.0701
     7.9045   7.9742   7.9747   8.2092   8.3184   8.3192   8.3766   8.3779
     8.5115   8.7976   8.8925   8.9003   8.9014   8.9648   9.0525   9.0531
     9.0543   9.0917   9.1550   9.1557   9.1777   9.1784   9.3248   9.3381
     9.3395   9.5246   9.6395   9.6404   9.7721   9.7731   9.9949   9.9955
    10.0587  10.1579  10.1589  10.2037  10.2253  10.4657  10.4664  10.5761
    10.5875  10.5883  10.6716  10.6734  10.7078  10.7086  10.8569  10.8739
    10.8758  11.0192  11.0202  11.0596  11.1379  11.1491  11.2625  11.4293
    11.4300  11.4501  11.4575  11.5099  11.5324  11.5337  11.5406  11.5415
    11.6086  11.6107  11.6187  11.6884  12.0222  12.0231  12.0795  12.1023
    12.1045  12.1444  12.1606  12.1618  12.1812  12.1819  12.3016  12.3039
    12.3500  12.4031  12.4459  12.4472  12.5824  12.6478  12.6757  12.7969
    12.7973  12.7983  12.7985  12.8045  12.8317  12.8844  12.8866  12.9315
    12.9336  12.9369  13.0138  13.0141  13.0353  13.0360  13.2580  13.2585
    13.4439  13.4921  13.4926  13.5466  13.8739  13.8760  13.8788  13.8797
    13.8848  13.8855  13.8862  13.8876  13.9927  13.9934  14.0049  14.0641
    14.1588  14.1597  14.2024  14.3297  14.3837  14.4183

          k =-0.2500 0.4330-0.1957 ( 82195 PWs)   bands (ev):

   -59.3205 -59.3205 -59.3178 -59.3176 -59.3176 -59.3174 -59.3121 -59.3119
   -59.3119 -59.3117 -59.3102 -59.3098 -59.3098 -59.3097 -59.3097 -59.3095
   -59.3090 -59.3089 -33.0342 -33.0340 -33.0323 -33.0321 -33.0315 -33.0314
   -33.0314 -33.0313 -33.0311 -33.0310 -33.0310 -33.0309 -33.0309 -33.0308
   -33.0308 -33.0307 -33.0307 -33.0307 -33.0307 -33.0306 -33.0306 -33.0305
   -33.0303 -33.0302 -33.0302 -33.0301 -33.0301 -33.0301 -33.0300 -33.0299
   -33.0298 -33.0298 -33.0296 -33.0296 -33.0295 -33.0294 -33.0293 -33.0292
   -33.0291 -33.0290 -33.0290 -33.0290 -33.0287 -33.0285 -33.0284 -33.0284
   -33.0280 -33.0278 -33.0275 -33.0272 -33.0271 -33.0271 -33.0269 -33.0268
   -33.0268 -33.0267 -33.0266 -33.0266 -33.0263 -33.0262 -33.0262 -33.0259
   -33.0259 -33.0258 -33.0258 -33.0258 -33.0255 -33.0254 -33.0253 -33.0250
   -33.0236 -33.0233 -33.0068 -33.0063 -33.0048 -33.0043 -33.0039 -33.0039
   -33.0037 -33.0037 -33.0035 -33.0035 -33.0034 -33.0033 -33.0033 -33.0032
   -33.0031 -33.0031 -33.0031 -33.0030 -33.0030 -33.0029 -33.0028 -33.0028
   -33.0027 -33.0027 -33.0026 -33.0025 -33.0025 -33.0024 -33.0024 -33.0023
   -33.0022 -33.0022 -33.0021 -33.0020 -33.0020 -33.0019 -33.0019 -33.0018
   -33.0018 -33.0018 -33.0017 -33.0017 -33.0017 -33.0016 -33.0016 -33.0016
   -33.0015 -33.0015 -33.0014 -33.0013 -33.0013 -33.0012 -33.0012 -33.0011
   -33.0010 -33.0010 -33.0009 -33.0009 -33.0008 -33.0007 -33.0007 -33.0006
   -33.0005 -33.0004 -33.0003 -33.0002 -33.0001 -33.0000 -32.9998 -32.9992
   -32.9978 -32.9974 -32.9920 -32.9902 -32.9900 -32.9895 -32.9894 -32.9894
   -32.9893 -32.9887 -32.9885 -32.9884 -32.9883 -32.9882 -32.9880 -32.9879
   -32.9879 -32.9879 -32.9878 -32.9878 -32.9877 -32.9875 -32.9873 -32.9873
   -32.9872 -32.9867 -32.9862 -32.9861 -32.9860 -32.9859 -32.9856 -32.9856
   -32.9856 -32.9855 -32.9854 -32.9853 -32.9850 -32.9830 -23.6930 -23.6927
   -23.6926 -23.6925 -23.6799 -23.6798 -23.6511 -23.6510 -23.6340 -23.6338
   -23.6337 -23.6334 -23.5972 -23.5971 -23.5845 -23.5844 -23.5843 -23.5842
   -23.5590 -23.5587 -23.5587 -23.5584 -23.5496 -23.5493 -23.5493 -23.5492
   -23.5492 -23.5489 -23.5458 -23.5458 -23.5408 -23.5407 -23.5350 -23.5347
   -23.5347 -23.5343 -23.5315 -23.5314 -23.5035 -23.5032 -23.5032 -23.5031
   -23.4982 -23.4981 -23.4980 -23.4977 -23.4757 -23.4756 -23.4522 -23.4520
   -23.4520 -23.4517 -23.4351 -23.4350  -0.3221  -0.0133   0.0897   0.0906
     0.3825   0.3835   0.7648   1.0131   1.0139   1.1031   1.1042   1.2472
     1.3082   1.3092   1.4368   1.4377   1.5793   1.6228   1.6238   1.6316
     1.6324   1.7047   1.7404   1.7414   1.8172   1.8646   1.8656   1.8895
     1.9032   1.9054   1.9064   2.0047   2.0059   2.0098   2.0354   2.0705
     7.9045   7.9739   7.9744   8.2097   8.3181   8.3188   8.3766   8.3779
     8.5121   8.7975   8.8923   8.9003   8.9014   8.9649   9.0529   9.0534
     9.0538   9.0912   9.1554   9.1561   9.1779   9.1786   9.3255   9.3382
     9.3395   9.5253   9.6396   9.6403   9.7720   9.7731   9.9952   9.9959
    10.0582  10.1574  10.1585  10.2034  10.2254  10.4651  10.4658  10.5754
    10.5874  10.5881  10.6715  10.6733  10.7083  10.7089  10.8562  10.8738
    10.8761  11.0189  11.0204  11.0590  11.1378  11.1485  11.2625  11.4287
    11.4301  11.4500  11.4579  11.5103  11.5332  11.5340  11.5405  11.5413
    11.6083  11.6103  11.6196  11.6882  12.0223  12.0232  12.0792  12.1025
    12.1043  12.1449  12.1604  12.1618  12.1813  12.1824  12.3018  12.3043
    12.3485  12.4031  12.4457  12.4466  12.5835  12.6472  12.6753  12.7969
    12.7971  12.7982  12.7984  12.8045  12.8334  12.8843  12.8867  12.9314
    12.9335  12.9386  13.0139  13.0147  13.0356  13.0361  13.2584  13.2589
    13.4429  13.4920  13.4925  13.5464  13.8747  13.8763  13.8783  13.8793
    13.8845  13.8854  13.8859  13.8879  13.9930  13.9935  14.0048  14.0645
    14.1585  14.1595  14.2023  14.3297  14.3841  14.4177

          k = 0.2500-0.4330-0.1957 ( 82195 PWs)   bands (ev):

   -59.3205 -59.3205 -59.3178 -59.3176 -59.3176 -59.3174 -59.3121 -59.3119
   -59.3119 -59.3117 -59.3102 -59.3098 -59.3098 -59.3097 -59.3097 -59.3095
   -59.3090 -59.3089 -33.0342 -33.0340 -33.0323 -33.0321 -33.0315 -33.0314
   -33.0314 -33.0313 -33.0311 -33.0310 -33.0310 -33.0309 -33.0308 -33.0308
   -33.0307 -33.0307 -33.0307 -33.0307 -33.0307 -33.0306 -33.0305 -33.0305
   -33.0303 -33.0302 -33.0302 -33.0301 -33.0301 -33.0301 -33.0300 -33.0299
   -33.0299 -33.0298 -33.0296 -33.0296 -33.0295 -33.0294 -33.0293 -33.0292
   -33.0291 -33.0290 -33.0290 -33.0290 -33.0287 -33.0285 -33.0284 -33.0284
   -33.0280 -33.0278 -33.0275 -33.0272 -33.0271 -33.0271 -33.0269 -33.0268
   -33.0268 -33.0267 -33.0266 -33.0266 -33.0263 -33.0262 -33.0262 -33.0259
   -33.0259 -33.0258 -33.0258 -33.0258 -33.0255 -33.0254 -33.0253 -33.0250
   -33.0236 -33.0233 -33.0068 -33.0063 -33.0048 -33.0043 -33.0040 -33.0039
   -33.0037 -33.0037 -33.0035 -33.0035 -33.0034 -33.0033 -33.0033 -33.0032
   -33.0031 -33.0031 -33.0030 -33.0030 -33.0030 -33.0029 -33.0028 -33.0028
   -33.0027 -33.0026 -33.0026 -33.0025 -33.0025 -33.0024 -33.0024 -33.0023
   -33.0022 -33.0021 -33.0021 -33.0021 -33.0020 -33.0019 -33.0019 -33.0019
   -33.0018 -33.0018 -33.0017 -33.0017 -33.0017 -33.0017 -33.0016 -33.0016
   -33.0015 -33.0015 -33.0014 -33.0014 -33.0013 -33.0013 -33.0012 -33.0011
   -33.0010 -33.0010 -33.0009 -33.0009 -33.0008 -33.0007 -33.0007 -33.0006
   -33.0005 -33.0003 -33.0003 -33.0002 -33.0001 -33.0000 -32.9998 -32.9992
   -32.9978 -32.9974 -32.9920 -32.9902 -32.9899 -32.9895 -32.9895 -32.9894
   -32.9893 -32.9887 -32.9885 -32.9884 -32.9883 -32.9881 -32.9880 -32.9879
   -32.9879 -32.9879 -32.9878 -32.9878 -32.9877 -32.9875 -32.9874 -32.9873
   -32.9872 -32.9867 -32.9861 -32.9861 -32.9860 -32.9859 -32.9856 -32.9856
   -32.9856 -32.9855 -32.9854 -32.9853 -32.9850 -32.9830 -23.6930 -23.6927
   -23.6926 -23.6925 -23.6799 -23.6798 -23.6511 -23.6510 -23.6340 -23.6338
   -23.6337 -23.6334 -23.5972 -23.5971 -23.5845 -23.5844 -23.5843 -23.5842
   -23.5590 -23.5587 -23.5587 -23.5584 -23.5496 -23.5493 -23.5493 -23.5492
   -23.5492 -23.5489 -23.5458 -23.5458 -23.5408 -23.5407 -23.5350 -23.5347
   -23.5347 -23.5343 -23.5315 -23.5314 -23.5035 -23.5032 -23.5032 -23.5031
   -23.4982 -23.4981 -23.4980 -23.4977 -23.4757 -23.4756 -23.4522 -23.4520
   -23.4520 -23.4517 -23.4351 -23.4350  -0.3221  -0.0133   0.0897   0.0906
     0.3825   0.3835   0.7648   1.0131   1.0139   1.1031   1.1042   1.2472
     1.3082   1.3092   1.4368   1.4377   1.5793   1.6228   1.6238   1.6316
     1.6324   1.7047   1.7404   1.7414   1.8172   1.8646   1.8656   1.8896
     1.9033   1.9054   1.9064   2.0046   2.0059   2.0099   2.0354   2.0705
     7.9045   7.9739   7.9744   8.2097   8.3181   8.3189   8.3766   8.3779
     8.5121   8.7975   8.8923   8.9003   8.9014   8.9649   9.0528   9.0534
     9.0539   9.0912   9.1554   9.1561   9.1779   9.1786   9.3255   9.3381
     9.3395   9.5253   9.6395   9.6404   9.7721   9.7730   9.9953   9.9959
    10.0582  10.1574  10.1584  10.2034  10.2255  10.4651  10.4658  10.5754
    10.5874  10.5881  10.6715  10.6733  10.7082  10.7090  10.8562  10.8740
    10.8759  11.0191  11.0201  11.0590  11.1378  11.1485  11.2625  11.4290
    11.4298  11.4500  11.4579  11.5103  11.5330  11.5342  11.5404  11.5415
    11.6083  11.6103  11.6196  11.6882  12.0223  12.0232  12.0792  12.1024
    12.1044  12.1449  12.1605  12.1618  12.1815  12.1822  12.3019  12.3042
    12.3485  12.4031  12.4455  12.4467  12.5835  12.6472  12.6753  12.7968
    12.7972  12.7983  12.7984  12.8045  12.8333  12.8844  12.8866  12.9313
    12.9336  12.9386  13.0142  13.0145  13.0355  13.0362  13.2584  13.2589
    13.4429  13.4920  13.4924  13.5464  13.8741  13.8763  13.8785  13.8798
    13.8848  13.8855  13.8864  13.8871  13.9929  13.9936  14.0048  14.0645
    14.1585  14.1595  14.2023  14.3297  14.3841  14.4177

          k = 0.5000-0.0000 0.1957 ( 82195 PWs)   bands (ev):

   -59.3205 -59.3205 -59.3176 -59.3176 -59.3176 -59.3176 -59.3120 -59.3119
   -59.3119 -59.3119 -59.3099 -59.3098 -59.3098 -59.3098 -59.3098 -59.3097
   -59.3090 -59.3089 -33.0343 -33.0340 -33.0323 -33.0319 -33.0316 -33.0314
   -33.0314 -33.0313 -33.0311 -33.0310 -33.0310 -33.0309 -33.0308 -33.0308
   -33.0308 -33.0308 -33.0307 -33.0307 -33.0307 -33.0306 -33.0306 -33.0306
   -33.0304 -33.0302 -33.0302 -33.0301 -33.0301 -33.0301 -33.0300 -33.0299
   -33.0298 -33.0298 -33.0297 -33.0295 -33.0295 -33.0294 -33.0293 -33.0292
   -33.0291 -33.0290 -33.0290 -33.0289 -33.0288 -33.0285 -33.0284 -33.0284
   -33.0280 -33.0277 -33.0275 -33.0271 -33.0271 -33.0271 -33.0270 -33.0268
   -33.0268 -33.0267 -33.0266 -33.0266 -33.0264 -33.0262 -33.0262 -33.0259
   -33.0259 -33.0259 -33.0258 -33.0258 -33.0255 -33.0254 -33.0253 -33.0251
   -33.0236 -33.0233 -33.0068 -33.0063 -33.0048 -33.0043 -33.0040 -33.0039
   -33.0038 -33.0036 -33.0036 -33.0035 -33.0034 -33.0033 -33.0033 -33.0032
   -33.0031 -33.0031 -33.0030 -33.0030 -33.0029 -33.0028 -33.0028 -33.0027
   -33.0027 -33.0027 -33.0026 -33.0025 -33.0025 -33.0024 -33.0023 -33.0023
   -33.0022 -33.0021 -33.0021 -33.0021 -33.0020 -33.0019 -33.0019 -33.0019
   -33.0018 -33.0018 -33.0018 -33.0017 -33.0017 -33.0017 -33.0016 -33.0016
   -33.0015 -33.0015 -33.0014 -33.0014 -33.0013 -33.0012 -33.0012 -33.0011
   -33.0010 -33.0010 -33.0009 -33.0009 -33.0008 -33.0007 -33.0006 -33.0006
   -33.0005 -33.0004 -33.0003 -33.0002 -33.0001 -32.9999 -32.9998 -32.9992
   -32.9978 -32.9974 -32.9920 -32.9901 -32.9899 -32.9897 -32.9895 -32.9894
   -32.9892 -32.9887 -32.9884 -32.9883 -32.9883 -32.9881 -32.9880 -32.9879
   -32.9879 -32.9879 -32.9878 -32.9878 -32.9877 -32.9876 -32.9874 -32.9873
   -32.9871 -32.9867 -32.9862 -32.9861 -32.9860 -32.9858 -32.9856 -32.9856
   -32.9856 -32.9855 -32.9854 -32.9853 -32.9850 -32.9830 -23.6928 -23.6926
   -23.6926 -23.6926 -23.6799 -23.6799 -23.6510 -23.6510 -23.6338 -23.6337
   -23.6337 -23.6337 -23.5972 -23.5971 -23.5844 -23.5844 -23.5843 -23.5843
   -23.5587 -23.5587 -23.5587 -23.5587 -23.5493 -23.5493 -23.5493 -23.5492
   -23.5492 -23.5492 -23.5458 -23.5458 -23.5408 -23.5408 -23.5348 -23.5347
   -23.5347 -23.5346 -23.5314 -23.5314 -23.5033 -23.5032 -23.5032 -23.5031
   -23.4981 -23.4981 -23.4981 -23.4979 -23.4756 -23.4756 -23.4521 -23.4520
   -23.4520 -23.4519 -23.4351 -23.4351  -0.3222  -0.0133   0.0901   0.0902
     0.3830   0.3831   0.7648   1.0134   1.0136   1.1037   1.1038   1.2472
     1.3087   1.3087   1.4372   1.4373   1.5792   1.6232   1.6233   1.6317
     1.6321   1.7048   1.7409   1.7409   1.8174   1.8649   1.8651   1.8895
     1.9035   1.9058   1.9059   2.0053   2.0057   2.0098   2.0356   2.0703
     7.9045   7.9740   7.9746   8.2095   8.3184   8.3189   8.3771   8.3774
     8.5118   8.7976   8.8924   8.9007   8.9010   8.9648   9.0527   9.0531
     9.0541   9.0914   9.1553   9.1559   9.1779   9.1784   9.3251   9.3387
     9.3390   9.5250   9.6397   9.6402   9.7721   9.7731   9.9950   9.9958
    10.0584  10.1577  10.1586  10.2035  10.2254  10.4655  10.4661  10.5757
    10.5878  10.5879  10.6716  10.6733  10.7081  10.7087  10.8566  10.8739
    10.8759  11.0190  11.0204  11.0593  11.1378  11.1488  11.2625  11.4287
    11.4303  11.4500  11.4577  11.5101  11.5332  11.5335  11.5408  11.5412
    11.6091  11.6098  11.6192  11.6883  12.0224  12.0230  12.0793  12.1029
    12.1038  12.1446  12.1607  12.1617  12.1811  12.1823  12.3020  12.3038
    12.3493  12.4031  12.4459  12.4467  12.5829  12.6475  12.6755  12.7969
    12.7972  12.7980  12.7986  12.8045  12.8326  12.8851  12.8860  12.9324
    12.9326  12.9377  13.0136  13.0147  13.0356  13.0358  13.2584  13.2585
    13.4434  13.4922  13.4924  13.5465  13.8749  13.8758  13.8784  13.8791
    13.8849  13.8856  13.8858  13.8879  13.9931  13.9932  14.0049  14.0643
    14.1589  14.1594  14.2022  14.3297  14.3839  14.4180

          k =-0.5000 0.0000 0.1957 ( 82195 PWs)   bands (ev):

   -59.3205 -59.3205 -59.3176 -59.3176 -59.3176 -59.3176 -59.3120 -59.3119
   -59.3119 -59.3119 -59.3099 -59.3098 -59.3098 -59.3098 -59.3098 -59.3097
   -59.3090 -59.3089 -33.0343 -33.0340 -33.0323 -33.0319 -33.0316 -33.0314
   -33.0314 -33.0313 -33.0311 -33.0310 -33.0310 -33.0309 -33.0309 -33.0308
   -33.0308 -33.0307 -33.0307 -33.0307 -33.0307 -33.0306 -33.0306 -33.0306
   -33.0304 -33.0302 -33.0302 -33.0301 -33.0301 -33.0301 -33.0300 -33.0299
   -33.0298 -33.0298 -33.0297 -33.0295 -33.0295 -33.0294 -33.0293 -33.0293
   -33.0291 -33.0290 -33.0290 -33.0289 -33.0288 -33.0285 -33.0284 -33.0284
   -33.0280 -33.0277 -33.0275 -33.0271 -33.0271 -33.0271 -33.0270 -33.0268
   -33.0268 -33.0267 -33.0266 -33.0266 -33.0264 -33.0262 -33.0262 -33.0259
   -33.0259 -33.0259 -33.0258 -33.0258 -33.0255 -33.0254 -33.0253 -33.0251
   -33.0236 -33.0233 -33.0068 -33.0063 -33.0048 -33.0043 -33.0040 -33.0039
   -33.0038 -33.0036 -33.0036 -33.0034 -33.0034 -33.0033 -33.0032 -33.0032
   -33.0031 -33.0031 -33.0030 -33.0030 -33.0029 -33.0029 -33.0028 -33.0027
   -33.0027 -33.0027 -33.0026 -33.0025 -33.0025 -33.0024 -33.0023 -33.0023
   -33.0022 -33.0022 -33.0021 -33.0021 -33.0020 -33.0019 -33.0019 -33.0019
   -33.0018 -33.0018 -33.0017 -33.0017 -33.0017 -33.0017 -33.0016 -33.0016
   -33.0015 -33.0015 -33.0014 -33.0014 -33.0013 -33.0012 -33.0012 -33.0011
   -33.0011 -33.0010 -33.0009 -33.0009 -33.0008 -33.0007 -33.0007 -33.0006
   -33.0005 -33.0004 -33.0003 -33.0003 -33.0001 -32.9999 -32.9998 -32.9992
   -32.9978 -32.9974 -32.9920 -32.9901 -32.9899 -32.9897 -32.9895 -32.9894
   -32.9892 -32.9887 -32.9884 -32.9883 -32.9883 -32.9881 -32.9880 -32.9879
   -32.9879 -32.9879 -32.9878 -32.9878 -32.9876 -32.9876 -32.9874 -32.9873
   -32.9871 -32.9867 -32.9862 -32.9861 -32.9860 -32.9858 -32.9856 -32.9856
   -32.9856 -32.9855 -32.9854 -32.9853 -32.9850 -32.9830 -23.6928 -23.6926
   -23.6926 -23.6926 -23.6799 -23.6799 -23.6510 -23.6510 -23.6338 -23.6337
   -23.6337 -23.6337 -23.5972 -23.5971 -23.5844 -23.5844 -23.5843 -23.5843
   -23.5587 -23.5587 -23.5587 -23.5587 -23.5493 -23.5493 -23.5493 -23.5492
   -23.5492 -23.5492 -23.5458 -23.5458 -23.5408 -23.5408 -23.5348 -23.5347
   -23.5347 -23.5346 -23.5314 -23.5314 -23.5033 -23.5032 -23.5032 -23.5031
   -23.4981 -23.4981 -23.4981 -23.4979 -23.4756 -23.4756 -23.4521 -23.4520
   -23.4520 -23.4519 -23.4351 -23.4351  -0.3222  -0.0133   0.0901   0.0902
     0.3830   0.3831   0.7648   1.0134   1.0136   1.1037   1.1038   1.2472
     1.3087   1.3088   1.4372   1.4373   1.5792   1.6231   1.6233   1.6317
     1.6321   1.7048   1.7409   1.7409   1.8173   1.8648   1.8651   1.8896
     1.9035   1.9058   1.9058   2.0051   2.0057   2.0101   2.0356   2.0703
     7.9045   7.9741   7.9745   8.2095   8.3182   8.3190   8.3772   8.3773
     8.5118   8.7976   8.8924   8.9007   8.9010   8.9649   9.0526   9.0532
     9.0542   9.0914   9.1553   9.1558   9.1779   9.1784   9.3251   9.3387
     9.3389   9.5250   9.6395   9.6404   9.7723   9.7728   9.9951   9.9957
    10.0584  10.1579  10.1584  10.2035  10.2254  10.4657  10.4658  10.5758
    10.5876  10.5880  10.6716  10.6733  10.7079  10.7089  10.8565  10.8744
    10.8754  11.0197  11.0197  11.0593  11.1378  11.1488  11.2625  11.4293
    11.4297  11.4500  11.4577  11.5101  11.5327  11.5339  11.5404  11.5416
    11.6091  11.6099  11.6191  11.6883  12.0224  12.0229  12.0794  12.1025
    12.1043  12.1446  12.1609  12.1615  12.1817  12.1818  12.3026  12.3032
    12.3493  12.4031  12.4457  12.4470  12.5829  12.6475  12.6755  12.7968
    12.7973  12.7982  12.7986  12.8045  12.8325  12.8854  12.8856  12.9320
    12.9329  12.9377  13.0140  13.0143  13.0353  13.0361  13.2583  13.2586
    13.4434  13.4922  13.4924  13.5465  13.8735  13.8761  13.8789  13.8800
    13.8855  13.8858  13.8861  13.8867  13.9929  13.9934  14.0049  14.0644
    14.1591  14.1592  14.2023  14.3297  14.3839  14.4180

          k =-0.2500 0.1443 0.1957 ( 82157 PWs)   bands (ev):

   -59.3222 -59.3222 -59.3164 -59.3164 -59.3144 -59.3143 -59.3143 -59.3143
   -59.3115 -59.3115 -59.3114 -59.3114 -59.3107 -59.3106 -59.3086 -59.3086
   -59.3085 -59.3085 -33.0343 -33.0340 -33.0324 -33.0321 -33.0317 -33.0316
   -33.0314 -33.0314 -33.0313 -33.0313 -33.0312 -33.0311 -33.0311 -33.0311
   -33.0309 -33.0309 -33.0308 -33.0307 -33.0307 -33.0306 -33.0305 -33.0305
   -33.0304 -33.0304 -33.0304 -33.0303 -33.0303 -33.0302 -33.0301 -33.0301
   -33.0300 -33.0297 -33.0297 -33.0297 -33.0296 -33.0291 -33.0289 -33.0285
   -33.0285 -33.0285 -33.0284 -33.0282 -33.0279 -33.0279 -33.0277 -33.0277
   -33.0276 -33.0275 -33.0273 -33.0273 -33.0272 -33.0272 -33.0269 -33.0268
   -33.0268 -33.0268 -33.0266 -33.0266 -33.0266 -33.0265 -33.0265 -33.0264
   -33.0262 -33.0261 -33.0261 -33.0260 -33.0256 -33.0255 -33.0255 -33.0252
   -33.0237 -33.0235 -33.0068 -33.0063 -33.0048 -33.0044 -33.0041 -33.0039
   -33.0037 -33.0035 -33.0035 -33.0034 -33.0033 -33.0032 -33.0031 -33.0031
   -33.0030 -33.0030 -33.0030 -33.0029 -33.0029 -33.0028 -33.0028 -33.0028
   -33.0027 -33.0027 -33.0026 -33.0025 -33.0025 -33.0024 -33.0024 -33.0023
   -33.0023 -33.0022 -33.0022 -33.0021 -33.0021 -33.0020 -33.0020 -33.0020
   -33.0019 -33.0019 -33.0018 -33.0018 -33.0017 -33.0017 -33.0017 -33.0016
   -33.0016 -33.0015 -33.0015 -33.0014 -33.0013 -33.0013 -33.0012 -33.0011
   -33.0010 -33.0010 -33.0009 -33.0008 -33.0008 -33.0007 -33.0006 -33.0005
   -33.0004 -33.0003 -33.0002 -33.0001 -33.0000 -32.9999 -32.9998 -32.9992
   -32.9978 -32.9973 -32.9920 -32.9904 -32.9901 -32.9896 -32.9892 -32.9891
   -32.9888 -32.9888 -32.9887 -32.9885 -32.9883 -32.9882 -32.9882 -32.9881
   -32.9880 -32.9879 -32.9878 -32.9877 -32.9877 -32.9874 -32.9871 -32.9870
   -32.9866 -32.9866 -32.9865 -32.9862 -32.9860 -32.9859 -32.9859 -32.9858
   -32.9855 -32.9854 -32.9854 -32.9853 -32.9850 -32.9830 -23.6846 -23.6845
   -23.6599 -23.6596 -23.6596 -23.6593 -23.6548 -23.6544 -23.6544 -23.6539
   -23.6046 -23.6045 -23.6022 -23.6020 -23.6020 -23.6016 -23.5790 -23.5789
   -23.5697 -23.5696 -23.5695 -23.5695 -23.5692 -23.5690 -23.5690 -23.5688
   -23.5640 -23.5639 -23.5567 -23.5567 -23.5567 -23.5566 -23.5532 -23.5532
   -23.5438 -23.5438 -23.5438 -23.5438 -23.4886 -23.4883 -23.4883 -23.4882
   -23.4830 -23.4829 -23.4717 -23.4715 -23.4715 -23.4713 -23.4545 -23.4545
   -23.4408 -23.4407 -23.4259 -23.4258  -0.5413  -0.2270   0.2813   0.5635
     0.6326   0.6376   0.6384   0.8935   0.8944   1.1279   1.1437   1.2144
     1.2152   1.3422   1.3431   1.4012   1.4021   1.4092   1.5211   1.5611
     1.6743   1.6753   1.6811   1.6821   1.7847   1.8914   1.8927   1.9162
     1.9170   1.9416   1.9681   1.9692   2.0692   2.0702   2.1157   2.1172
     7.6365   8.0861   8.4409   8.4743   8.4744   8.5504   8.6874   8.6877
     8.7254   8.8171   8.8184   8.8195   8.8199   8.8448   8.8450   8.9924
     8.9935   9.1489   9.1860   9.1869   9.2834   9.3805   9.3814   9.3968
     9.4424   9.4431   9.4621   9.4627   9.7080   9.7090   9.9047   9.9053
     9.9889  10.0519  10.0526  10.1791  10.1912  10.1918  10.2886  10.3729
    10.3735  10.5392  10.5396  10.6636  10.6646  10.7030  10.7041  10.7054
    10.7058  10.7286  10.7671  10.7880  10.7884  11.1577  11.1968  11.3249
    11.3256  11.4145  11.4150  11.4490  11.4491  11.5883  11.5888  11.6681
    11.6773  11.6786  11.8033  11.9153  11.9166  12.0200  12.0599  12.1090
    12.1914  12.1935  12.3553  12.4327  12.4337  12.4664  12.4667  12.4733
    12.5003  12.5185  12.5193  12.5390  12.5403  12.6177  12.7617  12.7630
    12.7746  12.8335  12.8350  12.8526  12.8536  12.9377  12.9385  12.9632
    12.9636  13.1317  13.1633  13.1710  13.1725  13.2520  13.2710  13.3183
    13.4050  13.4848  13.5003  13.5462  13.5854  13.6107  13.6537  13.7231
    13.7267  13.7650  13.7676  13.8272  13.8283  13.9169  13.9518  13.9525
    14.2329  14.2339  14.5190  14.5197  14.5441  14.8074

          k =-0.2500-0.1443-0.1957 ( 82157 PWs)   bands (ev):

   -59.3222 -59.3222 -59.3164 -59.3164 -59.3144 -59.3143 -59.3143 -59.3143
   -59.3115 -59.3115 -59.3114 -59.3114 -59.3107 -59.3106 -59.3086 -59.3086
   -59.3085 -59.3085 -33.0344 -33.0340 -33.0323 -33.0320 -33.0317 -33.0316
   -33.0315 -33.0313 -33.0313 -33.0312 -33.0312 -33.0311 -33.0311 -33.0311
   -33.0310 -33.0308 -33.0308 -33.0307 -33.0307 -33.0306 -33.0305 -33.0305
   -33.0305 -33.0304 -33.0304 -33.0303 -33.0303 -33.0302 -33.0302 -33.0301
   -33.0300 -33.0298 -33.0297 -33.0297 -33.0296 -33.0291 -33.0289 -33.0286
   -33.0285 -33.0285 -33.0284 -33.0283 -33.0280 -33.0279 -33.0277 -33.0277
   -33.0276 -33.0275 -33.0272 -33.0272 -33.0271 -33.0270 -33.0268 -33.0268
   -33.0268 -33.0267 -33.0266 -33.0266 -33.0265 -33.0265 -33.0265 -33.0263
   -33.0262 -33.0261 -33.0261 -33.0260 -33.0260 -33.0256 -33.0255 -33.0252
   -33.0238 -33.0233 -33.0068 -33.0063 -33.0048 -33.0044 -33.0041 -33.0039
   -33.0037 -33.0035 -33.0035 -33.0034 -33.0033 -33.0032 -33.0031 -33.0031
   -33.0030 -33.0030 -33.0030 -33.0029 -33.0029 -33.0028 -33.0028 -33.0027
   -33.0027 -33.0027 -33.0026 -33.0025 -33.0025 -33.0024 -33.0024 -33.0023
   -33.0023 -33.0022 -33.0022 -33.0021 -33.0021 -33.0020 -33.0020 -33.0020
   -33.0019 -33.0019 -33.0018 -33.0018 -33.0018 -33.0017 -33.0017 -33.0016
   -33.0016 -33.0016 -33.0015 -33.0014 -33.0014 -33.0013 -33.0012 -33.0011
   -33.0010 -33.0010 -33.0009 -33.0009 -33.0008 -33.0007 -33.0006 -33.0005
   -33.0004 -33.0003 -33.0003 -33.0002 -33.0001 -32.9998 -32.9997 -32.9992
   -32.9978 -32.9974 -32.9920 -32.9904 -32.9901 -32.9896 -32.9893 -32.9891
   -32.9888 -32.9888 -32.9886 -32.9884 -32.9883 -32.9882 -32.9882 -32.9881
   -32.9880 -32.9880 -32.9878 -32.9877 -32.9877 -32.9874 -32.9871 -32.9870
   -32.9866 -32.9866 -32.9865 -32.9863 -32.9860 -32.9859 -32.9858 -32.9857
   -32.9856 -32.9854 -32.9854 -32.9854 -32.9850 -32.9830 -23.6845 -23.6844
   -23.6600 -23.6596 -23.6596 -23.6594 -23.6548 -23.6544 -23.6544 -23.6539
   -23.6046 -23.6045 -23.6024 -23.6020 -23.6020 -23.6018 -23.5790 -23.5789
   -23.5696 -23.5695 -23.5695 -23.5695 -23.5692 -23.5690 -23.5690 -23.5688
   -23.5639 -23.5638 -23.5567 -23.5567 -23.5567 -23.5566 -23.5532 -23.5532
   -23.5438 -23.5438 -23.5438 -23.5438 -23.4885 -23.4883 -23.4883 -23.4881
   -23.4831 -23.4830 -23.4716 -23.4715 -23.4715 -23.4712 -23.4546 -23.4545
   -23.4407 -23.4406 -23.4259 -23.4259  -0.5413  -0.2270   0.2812   0.5634
     0.6326   0.6377   0.6387   0.8936   0.8945   1.1280   1.1438   1.2145
     1.2153   1.3420   1.3429   1.4012   1.4020   1.4089   1.5214   1.5610
     1.6741   1.6752   1.6810   1.6820   1.7848   1.8913   1.8926   1.9163
     1.9170   1.9420   1.9680   1.9693   2.0692   2.0702   2.1156   2.1172
     7.6365   8.0865   8.4414   8.4741   8.4743   8.5501   8.6873   8.6876
     8.7253   8.8174   8.8183   8.8194   8.8196   8.8447   8.8449   8.9925
     8.9933   9.1486   9.1859   9.1870   9.2829   9.3806   9.3811   9.3968
     9.4420   9.4434   9.4622   9.4627   9.7082   9.7088   9.9044   9.9054
     9.9882  10.0520  10.0527  10.1792  10.1914  10.1918  10.2888  10.3730
    10.3741  10.5392  10.5396  10.6642  10.6646  10.7039  10.7042  10.7054
    10.7062  10.7277  10.7672  10.7882  10.7886  11.1582  11.1970  11.3251
    11.3255  11.4148  11.4163  11.4485  11.4490  11.5884  11.5892  11.6671
    11.6784  11.6790  11.8023  11.9151  11.9166  12.0195  12.0594  12.1096
    12.1915  12.1935  12.3539  12.4322  12.4333  12.4672  12.4676  12.4720
    12.5007  12.5182  12.5190  12.5387  12.5398  12.6173  12.7615  12.7628
    12.7756  12.8341  12.8349  12.8518  12.8524  12.9369  12.9373  12.9633
    12.9647  13.1320  13.1636  13.1715  13.1725  13.2524  13.2721  13.3160
    13.4027  13.4860  13.5019  13.5473  13.5865  13.6105  13.6548  13.7224
    13.7253  13.7636  13.7672  13.8279  13.8288  13.9167  13.9518  13.9526
    14.2332  14.2336  14.5185  14.5198  14.5442  14.8077

          k = 0.2500 0.1443-0.1957 ( 82157 PWs)   bands (ev):

   -59.3222 -59.3222 -59.3164 -59.3164 -59.3144 -59.3143 -59.3143 -59.3143
   -59.3115 -59.3115 -59.3114 -59.3114 -59.3107 -59.3106 -59.3086 -59.3086
   -59.3085 -59.3085 -33.0344 -33.0340 -33.0323 -33.0320 -33.0317 -33.0316
   -33.0315 -33.0313 -33.0313 -33.0312 -33.0312 -33.0311 -33.0311 -33.0311
   -33.0311 -33.0308 -33.0308 -33.0307 -33.0307 -33.0306 -33.0306 -33.0305
   -33.0305 -33.0304 -33.0304 -33.0303 -33.0303 -33.0302 -33.0302 -33.0301
   -33.0300 -33.0298 -33.0297 -33.0297 -33.0295 -33.0291 -33.0289 -33.0286
   -33.0285 -33.0285 -33.0284 -33.0283 -33.0280 -33.0279 -33.0277 -33.0277
   -33.0276 -33.0275 -33.0272 -33.0272 -33.0272 -33.0270 -33.0268 -33.0268
   -33.0268 -33.0267 -33.0266 -33.0266 -33.0265 -33.0265 -33.0265 -33.0263
   -33.0262 -33.0261 -33.0261 -33.0260 -33.0260 -33.0256 -33.0255 -33.0252
   -33.0238 -33.0233 -33.0068 -33.0063 -33.0048 -33.0044 -33.0041 -33.0039
   -33.0037 -33.0035 -33.0035 -33.0033 -33.0033 -33.0032 -33.0031 -33.0031
   -33.0030 -33.0030 -33.0030 -33.0030 -33.0029 -33.0029 -33.0028 -33.0027
   -33.0027 -33.0026 -33.0026 -33.0025 -33.0025 -33.0024 -33.0024 -33.0023
   -33.0023 -33.0023 -33.0022 -33.0021 -33.0020 -33.0020 -33.0020 -33.0019
   -33.0019 -33.0019 -33.0018 -33.0018 -33.0017 -33.0017 -33.0017 -33.0016
   -33.0016 -33.0015 -33.0015 -33.0014 -33.0014 -33.0013 -33.0012 -33.0011
   -33.0011 -33.0010 -33.0009 -33.0009 -33.0008 -33.0007 -33.0006 -33.0005
   -33.0004 -33.0003 -33.0003 -33.0002 -33.0001 -32.9998 -32.9997 -32.9992
   -32.9978 -32.9974 -32.9920 -32.9904 -32.9901 -32.9896 -32.9893 -32.9891
   -32.9888 -32.9888 -32.9886 -32.9884 -32.9883 -32.9882 -32.9882 -32.9881
   -32.9880 -32.9880 -32.9878 -32.9877 -32.9877 -32.9874 -32.9871 -32.9870
   -32.9866 -32.9866 -32.9865 -32.9863 -32.9860 -32.9859 -32.9858 -32.9857
   -32.9856 -32.9854 -32.9854 -32.9854 -32.9850 -32.9830 -23.6845 -23.6844
   -23.6600 -23.6596 -23.6596 -23.6594 -23.6548 -23.6544 -23.6544 -23.6539
   -23.6046 -23.6045 -23.6024 -23.6020 -23.6020 -23.6018 -23.5790 -23.5789
   -23.5696 -23.5695 -23.5695 -23.5695 -23.5692 -23.5690 -23.5690 -23.5688
   -23.5639 -23.5638 -23.5567 -23.5567 -23.5567 -23.5566 -23.5532 -23.5532
   -23.5438 -23.5438 -23.5438 -23.5438 -23.4885 -23.4883 -23.4883 -23.4881
   -23.4831 -23.4830 -23.4716 -23.4715 -23.4715 -23.4712 -23.4546 -23.4545
   -23.4407 -23.4406 -23.4259 -23.4259  -0.5413  -0.2270   0.2812   0.5634
     0.6326   0.6377   0.6386   0.8936   0.8945   1.1281   1.1438   1.2145
     1.2153   1.3420   1.3429   1.4012   1.4021   1.4088   1.5214   1.5611
     1.6741   1.6751   1.6811   1.6821   1.7848   1.8912   1.8926   1.9163
     1.9169   1.9421   1.9681   1.9693   2.0692   2.0702   2.1157   2.1172
     7.6365   8.0863   8.4417   8.4744   8.4746   8.5503   8.6871   8.6874
     8.7254   8.8169   8.8179   8.8190   8.8192   8.8452   8.8453   8.9922
     8.9933   9.1483   9.1859   9.1868   9.2830   9.3809   9.3818   9.3960
     9.4437   9.4444   9.4619   9.4624   9.7085   9.7095   9.9026   9.9032
     9.9883  10.0521  10.0528  10.1787  10.1913  10.1919  10.2910  10.3731
    10.3736  10.5396  10.5399  10.6636  10.6647  10.7039  10.7045  10.7061
    10.7068  10.7276  10.7658  10.7882  10.7886  11.1584  11.1970  11.3249
    11.3256  11.4145  11.4150  11.4487  11.4488  11.5893  11.5898  11.6671
    11.6786  11.6799  11.8022  11.9147  11.9159  12.0196  12.0594  12.1096
    12.1915  12.1936  12.3539  12.4327  12.4337  12.4671  12.4679  12.4721
    12.5009  12.5177  12.5185  12.5387  12.5399  12.6171  12.7619  12.7630
    12.7757  12.8332  12.8347  12.8513  12.8523  12.9369  12.9378  12.9637
    12.9641  13.1319  13.1641  13.1716  13.1733  13.2524  13.2719  13.3160
    13.4027  13.4853  13.5027  13.5474  13.5851  13.6106  13.6558  13.7215
    13.7252  13.7646  13.7671  13.8272  13.8283  13.9167  13.9524  13.9531
    14.2330  14.2340  14.5187  14.5194  14.5441  14.8078

          k = 0.0000-0.2887 0.1957 ( 82157 PWs)   bands (ev):

   -59.3222 -59.3222 -59.3165 -59.3164 -59.3144 -59.3143 -59.3143 -59.3143
   -59.3115 -59.3115 -59.3114 -59.3114 -59.3107 -59.3106 -59.3086 -59.3086
   -59.3085 -59.3085 -33.0343 -33.0340 -33.0324 -33.0321 -33.0317 -33.0316
   -33.0315 -33.0314 -33.0313 -33.0313 -33.0312 -33.0311 -33.0311 -33.0311
   -33.0309 -33.0308 -33.0308 -33.0308 -33.0307 -33.0306 -33.0305 -33.0305
   -33.0304 -33.0304 -33.0304 -33.0303 -33.0303 -33.0302 -33.0302 -33.0301
   -33.0300 -33.0298 -33.0297 -33.0297 -33.0296 -33.0291 -33.0288 -33.0286
   -33.0285 -33.0285 -33.0284 -33.0283 -33.0280 -33.0279 -33.0277 -33.0277
   -33.0276 -33.0275 -33.0273 -33.0272 -33.0272 -33.0270 -33.0269 -33.0268
   -33.0268 -33.0267 -33.0266 -33.0266 -33.0265 -33.0265 -33.0265 -33.0263
   -33.0262 -33.0261 -33.0261 -33.0260 -33.0259 -33.0256 -33.0255 -33.0252
   -33.0237 -33.0234 -33.0068 -33.0063 -33.0048 -33.0044 -33.0041 -33.0039
   -33.0037 -33.0035 -33.0035 -33.0033 -33.0033 -33.0032 -33.0032 -33.0031
   -33.0031 -33.0030 -33.0030 -33.0030 -33.0029 -33.0028 -33.0028 -33.0027
   -33.0027 -33.0027 -33.0026 -33.0025 -33.0025 -33.0024 -33.0024 -33.0023
   -33.0022 -33.0022 -33.0022 -33.0021 -33.0021 -33.0020 -33.0020 -33.0019
   -33.0019 -33.0019 -33.0018 -33.0018 -33.0017 -33.0017 -33.0017 -33.0016
   -33.0016 -33.0015 -33.0015 -33.0014 -33.0013 -33.0012 -33.0012 -33.0011
   -33.0010 -33.0010 -33.0009 -33.0009 -33.0008 -33.0007 -33.0006 -33.0005
   -33.0004 -33.0004 -33.0003 -33.0002 -33.0000 -32.9999 -32.9997 -32.9992
   -32.9978 -32.9974 -32.9920 -32.9904 -32.9901 -32.9895 -32.9892 -32.9891
   -32.9888 -32.9888 -32.9886 -32.9885 -32.9883 -32.9882 -32.9882 -32.9882
   -32.9880 -32.9879 -32.9878 -32.9877 -32.9877 -32.9873 -32.9872 -32.9870
   -32.9866 -32.9866 -32.9865 -32.9862 -32.9860 -32.9859 -32.9858 -32.9857
   -32.9856 -32.9854 -32.9854 -32.9853 -32.9850 -32.9830 -23.6845 -23.6845
   -23.6601 -23.6596 -23.6596 -23.6592 -23.6549 -23.6544 -23.6544 -23.6538
   -23.6046 -23.6045 -23.6024 -23.6020 -23.6020 -23.6016 -23.5790 -23.5789
   -23.5697 -23.5695 -23.5695 -23.5695 -23.5693 -23.5690 -23.5690 -23.5686
   -23.5639 -23.5639 -23.5567 -23.5567 -23.5567 -23.5566 -23.5532 -23.5532
   -23.5438 -23.5438 -23.5438 -23.5438 -23.4886 -23.4883 -23.4883 -23.4881
   -23.4830 -23.4830 -23.4716 -23.4715 -23.4715 -23.4714 -23.4545 -23.4545
   -23.4407 -23.4407 -23.4259 -23.4259  -0.5413  -0.2270   0.2812   0.5635
     0.6326   0.6375   0.6387   0.8934   0.8946   1.1280   1.1437   1.2143
     1.2154   1.3421   1.3430   1.4011   1.4022   1.4090   1.5213   1.5611
     1.6744   1.6751   1.6810   1.6821   1.7848   1.8914   1.8926   1.9162
     1.9170   1.9418   1.9681   1.9692   2.0692   2.0702   2.1157   2.1172
     7.6365   8.0863   8.4411   8.4741   8.4744   8.5503   8.6873   8.6877
     8.7253   8.8170   8.8186   8.8195   8.8198   8.8447   8.8450   8.9924
     8.9935   9.1487   9.1859   9.1870   9.2831   9.3803   9.3814   9.3968
     9.4419   9.4435   9.4620   9.4629   9.7083   9.7087   9.9045   9.9054
     9.9885  10.0517  10.0529  10.1791  10.1912  10.1919  10.2887  10.3729
    10.3739  10.5391  10.5397  10.6640  10.6645  10.7032  10.7042  10.7053
    10.7062  10.7282  10.7672  10.7880  10.7886  11.1580  11.1969  11.3249
    11.3257  11.4146  11.4156  11.4487  11.4491  11.5882  11.5891  11.6676
    11.6780  11.6787  11.8028  11.9149  11.9168  12.0198  12.0597  12.1093
    12.1915  12.1935  12.3546  12.4324  12.4335  12.4668  12.4670  12.4727
    12.5006  12.5182  12.5193  12.5388  12.5401  12.6175  12.7618  12.7627
    12.7751  12.8340  12.8347  12.8521  12.8531  12.9371  12.9381  12.9632
    12.9642  13.1318  13.1634  13.1713  13.1725  13.2522  13.2716  13.3172
    13.4038  13.4854  13.5010  13.5467  13.5859  13.6107  13.6542  13.7233
    13.7256  13.7646  13.7670  13.8272  13.8289  13.9168  13.9515  13.9529
    14.2330  14.2339  14.5187  14.5198  14.5442  14.8076

          k = 0.0000 0.2887 0.1957 ( 82157 PWs)   bands (ev):

   -59.3222 -59.3222 -59.3165 -59.3164 -59.3144 -59.3143 -59.3143 -59.3143
   -59.3115 -59.3115 -59.3114 -59.3114 -59.3107 -59.3106 -59.3086 -59.3086
   -59.3085 -59.3085 -33.0343 -33.0340 -33.0324 -33.0321 -33.0317 -33.0316
   -33.0315 -33.0314 -33.0313 -33.0313 -33.0312 -33.0311 -33.0311 -33.0311
   -33.0309 -33.0308 -33.0308 -33.0307 -33.0307 -33.0306 -33.0306 -33.0305
   -33.0305 -33.0304 -33.0304 -33.0303 -33.0302 -33.0302 -33.0302 -33.0301
   -33.0300 -33.0298 -33.0297 -33.0297 -33.0296 -33.0291 -33.0288 -33.0286
   -33.0285 -33.0285 -33.0284 -33.0283 -33.0280 -33.0279 -33.0277 -33.0277
   -33.0276 -33.0275 -33.0273 -33.0272 -33.0272 -33.0269 -33.0269 -33.0268
   -33.0268 -33.0267 -33.0266 -33.0266 -33.0265 -33.0265 -33.0265 -33.0263
   -33.0262 -33.0261 -33.0261 -33.0260 -33.0259 -33.0256 -33.0255 -33.0252
   -33.0237 -33.0234 -33.0068 -33.0063 -33.0048 -33.0044 -33.0041 -33.0039
   -33.0037 -33.0035 -33.0035 -33.0033 -33.0033 -33.0032 -33.0032 -33.0031
   -33.0031 -33.0030 -33.0030 -33.0030 -33.0029 -33.0029 -33.0028 -33.0027
   -33.0027 -33.0026 -33.0026 -33.0025 -33.0025 -33.0024 -33.0024 -33.0023
   -33.0023 -33.0022 -33.0022 -33.0021 -33.0021 -33.0021 -33.0020 -33.0019
   -33.0019 -33.0019 -33.0018 -33.0018 -33.0017 -33.0017 -33.0017 -33.0016
   -33.0016 -33.0015 -33.0015 -33.0014 -33.0014 -33.0013 -33.0012 -33.0012
   -33.0010 -33.0010 -33.0009 -33.0008 -33.0007 -33.0007 -33.0006 -33.0005
   -33.0004 -33.0003 -33.0003 -33.0002 -33.0000 -32.9999 -32.9997 -32.9992
   -32.9978 -32.9974 -32.9920 -32.9904 -32.9901 -32.9895 -32.9892 -32.9891
   -32.9888 -32.9888 -32.9886 -32.9885 -32.9883 -32.9882 -32.9882 -32.9882
   -32.9880 -32.9879 -32.9878 -32.9877 -32.9877 -32.9873 -32.9872 -32.9870
   -32.9866 -32.9866 -32.9865 -32.9862 -32.9860 -32.9859 -32.9859 -32.9857
   -32.9856 -32.9854 -32.9854 -32.9853 -32.9850 -32.9830 -23.6845 -23.6845
   -23.6601 -23.6596 -23.6596 -23.6592 -23.6549 -23.6544 -23.6544 -23.6538
   -23.6046 -23.6045 -23.6024 -23.6020 -23.6020 -23.6016 -23.5790 -23.5789
   -23.5697 -23.5695 -23.5695 -23.5695 -23.5693 -23.5690 -23.5690 -23.5686
   -23.5639 -23.5639 -23.5567 -23.5567 -23.5567 -23.5566 -23.5532 -23.5532
   -23.5438 -23.5438 -23.5438 -23.5438 -23.4886 -23.4883 -23.4883 -23.4881
   -23.4830 -23.4830 -23.4716 -23.4715 -23.4715 -23.4714 -23.4545 -23.4545
   -23.4407 -23.4407 -23.4259 -23.4259  -0.5413  -0.2270   0.2812   0.5634
     0.6326   0.6375   0.6387   0.8934   0.8946   1.1280   1.1437   1.2143
     1.2154   1.3421   1.3429   1.4011   1.4021   1.4090   1.5213   1.5611
     1.6743   1.6752   1.6811   1.6821   1.7847   1.8914   1.8926   1.9162
     1.9170   1.9418   1.9681   1.9693   2.0691   2.0702   2.1157   2.1172
     7.6365   8.0861   8.4414   8.4744   8.4747   8.5505   8.6871   8.6875
     8.7254   8.8166   8.8181   8.8190   8.8193   8.8451   8.8454   8.9922
     8.9933   9.1485   9.1859   9.1869   9.2833   9.3808   9.3819   9.3960
     9.4433   9.4449   9.4617   9.4626   9.7088   9.7092   9.9025   9.9034
     9.9886  10.0518  10.0530  10.1787  10.1912  10.1919  10.2909  10.3726
    10.3737  10.5395  10.5400  10.6637  10.6642  10.7033  10.7047  10.7061
    10.7064  10.7281  10.7658  10.7879  10.7886  11.1582  11.1968  11.3248
    11.3256  11.4138  11.4148  11.4487  11.4491  11.5889  11.5899  11.6676
    11.6785  11.6793  11.8028  11.9143  11.9163  12.0198  12.0597  12.1093
    12.1915  12.1935  12.3546  12.4328  12.4340  12.4667  12.4674  12.4728
    12.5006  12.5178  12.5188  12.5388  12.5401  12.6173  12.7621  12.7630
    12.7750  12.8336  12.8342  12.8519  12.8528  12.9374  12.9383  12.9631
    12.9641  13.1317  13.1641  13.1716  13.1730  13.2522  13.2714  13.3172
    13.4038  13.4846  13.5019  13.5468  13.5845  13.6107  13.6552  13.7227
    13.7250  13.7651  13.7675  13.8267  13.8283  13.9168  13.9521  13.9534
    14.2331  14.2340  14.5185  14.5197  14.5441  14.8076

     highest occupied level (ev):    14.8078

!    total energy              =  -11463.64105249 Ry
     estimated scf accuracy    <          7.9E-11 Ry

     The total energy is the sum of the following terms:
     one-electron contribution =   -4881.93882678 Ry
     hartree contribution      =    2761.94530822 Ry
     xc contribution           =   -2343.52873245 Ry
     ewald contribution        =   -6998.08315046 Ry
     Dispersion Correction     =      -2.03565102 Ry

     convergence has been achieved in  27 iterations

     Forces acting on atoms (cartesian axes, Ry/au):

     atom    1 type  1   force =    -0.00540854    0.00001624   -0.00887572
     atom    2 type  1   force =     0.00005793   -0.00025546   -0.00014708
     atom    3 type  1   force =     0.00004715    0.00025382   -0.00014924
     atom    4 type  1   force =     0.00006649   -0.00024369   -0.00015071
     atom    5 type  1   force =     0.00007006    0.00024652   -0.00014563
     atom    6 type  1   force =     0.00006335    0.00000002   -0.00000169
     atom    7 type  1   force =     0.00006977    0.00026102   -0.00014955
     atom    8 type  1   force =     0.00006295    0.00000032   -0.00000169
     atom    9 type  1   force =     0.00006745   -0.00026599   -0.00014678
     atom   10 type  1   force =     0.00000379    0.00000234    0.00000409
     atom   11 type  1   force =    -0.00000558    0.00000007    0.00002034
     atom   12 type  1   force =     0.00000369   -0.00000219    0.00000322
     atom   13 type  1   force =     0.00000776    0.00000024    0.00000372
     atom   14 type  1   force =     0.00000523    0.00000679    0.00001323
     atom   15 type  1   force =     0.00000513   -0.00000663    0.00001341
     atom   16 type  1   force =     0.00000594    0.00000670    0.00002038
     atom   17 type  1   force =     0.00000574   -0.00000655    0.00002046
     atom   18 type  1   force =    -0.00000646   -0.00000000    0.00001338
     atom   19 type  2   force =     0.00001722    0.00000002   -0.00019422
     atom   20 type  2   force =     0.00000888    0.00001236   -0.00012707
     atom   21 type  2   force =    -0.00000052    0.00000669   -0.00013233
     atom   22 type  2   force =    -0.00000491   -0.00000294   -0.00012675
     atom   23 type  2   force =     0.00001612    0.00000148   -0.00013269
     atom   24 type  2   force =    -0.00000656   -0.00000012   -0.00015027
     atom   25 type  2   force =    -0.00000527   -0.00000801   -0.00012413
     atom   26 type  2   force =    -0.00000151   -0.00000018   -0.00014573
     atom   27 type  2   force =     0.00000626   -0.00000980   -0.00013528
     atom   28 type  2   force =     0.00219125   -0.00111932    0.00259151
     atom   29 type  2   force =     0.00002226    0.00000293    0.00018555
     atom   30 type  2   force =    -0.00000095   -0.00014745    0.00072812
     atom   31 type  2   force =     0.00025359    0.00125926    0.00165142
     atom   32 type  2   force =     0.00006424    0.00009184    0.00025616
     atom   33 type  2   force =    -0.00000930   -0.00004906    0.00016866
     atom   34 type  2   force =     0.00001370   -0.00000494    0.00018010
     atom   35 type  2   force =     0.00001826    0.00000218    0.00019033
     atom   36 type  2   force =    -0.00009452   -0.00004203    0.00021213
     atom   37 type  2   force =    -0.00000424    0.00015015    0.00048569
     atom   38 type  2   force =     0.00002082   -0.00000302   -0.00005681
     atom   39 type  2   force =     0.00210142    0.00106470    0.00225330
     atom   40 type  2   force =     0.00025667   -0.00122162    0.00137733
     atom   41 type  2   force =    -0.00001003    0.00004942   -0.00007347
     atom   42 type  2   force =     0.00006036   -0.00008979    0.00001358
     atom   43 type  2   force =     0.00001804   -0.00000161   -0.00005010
     atom   44 type  2   force =     0.00001232    0.00000479   -0.00006290
     atom   45 type  2   force =    -0.00009535    0.00004106   -0.00002972
     atom   46 type  2   force =     0.00001690    0.00000009    0.00004604
     atom   47 type  2   force =    -0.00000084   -0.00000681    0.00010904
     atom   48 type  2   force =     0.00000947   -0.00001242    0.00011463
     atom   49 type  2   force =     0.00001678   -0.00000201    0.00010883
     atom   50 type  2   force =    -0.00000537    0.00000256    0.00011458
     atom   51 type  2   force =    -0.00000656   -0.00000015    0.00009126
     atom   52 type  2   force =     0.00000647    0.00001015    0.00010612
     atom   53 type  2   force =    -0.00000161   -0.00000018    0.00009551
     atom   54 type  2   force =    -0.00000534    0.00000824    0.00011744

     Total force =     0.011883     Total SCF correction =     0.000049


     Computing stress (Cartesian axis) and pressure

          total   stress  (Ry/bohr**3)                   (kbar)     P=       64.44
   0.00051200  -0.00000057   0.00000003           75.32       -0.08        0.00
  -0.00000057   0.00051200  -0.00000000           -0.08       75.32       -0.00
   0.00000003  -0.00000000   0.00029024            0.00       -0.00       42.70


     Writing all to output data dir ./WSe.save/ :
     XML data file, charge density, pseudopotentials, collected wavefunctions
 
     init_run     :      9.33s CPU     11.60s WALL (       1 calls)
     electrons    :    735.33s CPU    902.74s WALL (       1 calls)
     forces       :      7.06s CPU      7.69s WALL (       1 calls)
     force_london :      0.04s CPU      0.04s WALL (       1 calls)
     stress       :    102.25s CPU    108.75s WALL (       1 calls)
     stres_london :      0.04s CPU      0.04s WALL (       1 calls)

     Called by init_run:
     wfcinit      :      8.78s CPU     10.77s WALL (       1 calls)
     potinit      :      0.04s CPU      0.08s WALL (       1 calls)
     hinit0       :      0.18s CPU      0.35s WALL (       1 calls)

     Called by electrons:
     c_bands      :    690.14s CPU    846.17s WALL (      28 calls)
     sum_band     :     42.92s CPU     51.54s WALL (      28 calls)
     v_of_rho     :      1.50s CPU      1.68s WALL (      28 calls)
     mix_rho      :      0.59s CPU      0.66s WALL (      28 calls)
     energy_londo :      0.05s CPU      0.05s WALL (       1 calls)

     Called by c_bands:
     init_us_2    :      9.35s CPU      9.46s WALL (     177 calls)
     init_us_2:cp :      9.34s CPU      9.45s WALL (     177 calls)
     cegterg      :    658.09s CPU    801.49s WALL (      84 calls)

     Called by *egterg:
     cdiaghg      :     45.11s CPU    113.81s WALL (     445 calls)
     h_psi        :    382.68s CPU    424.57s WALL (     451 calls)
     g_psi        :      1.51s CPU      1.56s WALL (     364 calls)

     Called by h_psi:
     h_psi:calbec :     99.75s CPU    107.73s WALL (     451 calls)
     vloc_psi     :    192.30s CPU    225.12s WALL (     451 calls)
     add_vuspsi   :     86.79s CPU     87.24s WALL (     451 calls)

     General routines
     calbec       :    107.28s CPU    119.22s WALL (     466 calls)
     fft          :      1.01s CPU      1.29s WALL (     305 calls)
     ffts         :      0.07s CPU      0.09s WALL (      28 calls)
     fftw         :    211.16s CPU    248.07s WALL (  209828 calls)
 
     Parallel routines
     fft_scatt_xy :     20.51s CPU     23.74s WALL (  210161 calls)
     fft_scatt_yz :    118.45s CPU    141.27s WALL (  210161 calls)
 
     PWSCF        :  14m30.58s CPU  17m54.54s WALL

 
   This run was terminated on:  17:27:14   5Nov2024            

=------------------------------------------------------------------------------=
   JOB DONE.
=------------------------------------------------------------------------------=
