
     Program PWSCF v.7.3 starts on  5Nov2024 at 17:27:26 

     This program is part of the open-source Quantum ESPRESSO suite
     for quantum simulation of materials; please cite
         "P. Giannozzi et al., J. Phys.:Condens. Matter 21 395502 (2009);
         "P. Giannozzi et al., J. Phys.:Condens. Matter 29 465901 (2017);
         "P. Giannozzi et al., J. Chem. Phys. 152 154105 (2020);
          URL http://www.quantum-espresso.org", 
     in publications or presentations arising from this work. More details at
     http://www.quantum-espresso.org/quote

     Parallel version (MPI & OpenMP), running on     256 processor cores
     Number of MPI processes:               256
     Threads/MPI process:                     1

     MPI processes distributed on     1 nodes
     484797 MiB available memory on the printing compute node when the environment starts
 
     Waiting for input...
     Reading input from standard input

     Current dimensions of program PWSCF are:
     Max number of different atomic species (ntypx) = 10
     Max number of k-points (npk) =  40000
     Max angular momentum in pseudopotentials (lmaxx) =  4
 
     K-points division:     npool     =       4
     R & G space division:  proc/nbgrp/npool/nimage =      64
     Subspace diagonalization in iterative solution of the eigenvalue problem:
     one sub-group per band group will be used
     scalapack distributed-memory algorithm (size of sub-group:  4*  4 procs)

 
     Parallelization info
     --------------------
     sticks:   dense  smooth     PW     G-vecs:    dense   smooth      PW
     Min         115     115     30                10267    10267    1360
     Max         116     116     31                10276    10276    1368
     Sum        7399    7399   1921               657343   657343   87345
 
     Using Pencil Decomposition
 


     bravais-lattice index     =            0
     lattice parameter (alat)  =      18.3170  a.u.
     unit-cell volume          =    6800.4918 (a.u.)^3
     number of atoms/cell      =           54
     number of atomic types    =            2
     number of electrons       =       828.00
     number of Kohn-Sham states=          414
     kinetic-energy cutoff     =      80.0000  Ry
     charge density cutoff     =     320.0000  Ry
     scf convergence threshold =      1.0E-10
     mixing beta               =       0.5000
     number of iterations used =            8  plain     mixing
     Exchange-correlation= PBE
                           (   1   4   3   4   0   0   0)

     celldm(1)=  18.317010  celldm(2)=   0.000000  celldm(3)=   0.000000
     celldm(4)=   0.000000  celldm(5)=   0.000000  celldm(6)=   0.000000

     crystal axes: (cart. coord. in units of alat)
               a(1) = (   1.000000   0.000000   0.000000 )  
               a(2) = (  -0.500000   0.866025   0.000000 )  
               a(3) = (   0.000000   0.000000   1.277750 )  

     reciprocal axes: (cart. coord. in units 2 pi/alat)
               b(1) = (  1.000000  0.577350  0.000000 )  
               b(2) = (  0.000000  1.154701  0.000000 )  
               b(3) = (  0.000000  0.000000  0.782626 )  


     PseudoPot. # 1 for W  read from file:
     /users/rkarkee/pbe_pseudo/W.upf
     MD5 check sum: cb94e439a9e4ea809831d6e90c63864e
     Pseudo is Norm-conserving + core correction, Zval = 14.0
     Generated using ONCVPSP code by D. R. Hamann
     Using radial grid of 1396 points,  8 beta functions with: 
                l(1) =   0
                l(2) =   0
                l(3) =   1
                l(4) =   1
                l(5) =   2
                l(6) =   2
                l(7) =   3
                l(8) =   3

     PseudoPot. # 2 for Se read from file:
     /users/rkarkee/pbe_pseudo/Se.upf
     MD5 check sum: 3cc46b3642295b3f4fdae63b742ce36d
     Pseudo is Norm-conserving + core correction, Zval = 16.0
     Generated using ONCVPSP code by D. R. Hamann
     Using radial grid of 1214 points,  6 beta functions with: 
                l(1) =   0
                l(2) =   0
                l(3) =   1
                l(4) =   1
                l(5) =   2
                l(6) =   2

     atomic species   valence    mass     pseudopotential
     W                14.00   183.84000     W ( 1.00)
     Se               16.00    78.96000     Se( 1.00)

     No symmetry found



   Cartesian axes

     site n.     atom                  positions (alat units)
         1        W      tau(   1) = (  -0.0000000   0.1924501   0.9583127  )
         2        W      tau(   2) = (   0.3333333   0.1924501   0.9583127  )
         3        W      tau(   3) = (   0.6666667   0.1924501   0.9583127  )
         4        W      tau(   4) = (  -0.1666667   0.4811252   0.9583127  )
         5        W      tau(   5) = (   0.1666667   0.4811252   0.9583127  )
         6        W      tau(   6) = (   0.5000000   0.4811252   0.9583127  )
         7        W      tau(   7) = (  -0.3333333   0.7698004   0.9583127  )
         8        W      tau(   8) = (   0.0000000   0.7698004   0.9583127  )
         9        W      tau(   9) = (   0.3333333   0.7698004   0.9583127  )
        10        W      tau(  10) = (   0.1666667   0.0962250   0.3194376  )
        11        W      tau(  11) = (   0.5000000   0.0962250   0.3194376  )
        12        W      tau(  12) = (   0.8333333   0.0962250   0.3194376  )
        13        W      tau(  13) = (  -0.0000000   0.3849002   0.3194376  )
        14        W      tau(  14) = (   0.3333333   0.3849002   0.3194376  )
        15        W      tau(  15) = (   0.6666667   0.3849002   0.3194376  )
        16        W      tau(  16) = (  -0.1666667   0.6735753   0.3194376  )
        17        W      tau(  17) = (   0.1666667   0.6735753   0.3194376  )
        18        W      tau(  18) = (   0.5000000   0.6735753   0.3194376  )
        19        Se     tau(  19) = (   0.0006729   0.1924501   0.1460115  )
        20        Se     tau(  20) = (   0.3333333   0.1924501   0.1451516  )
        21        Se     tau(  21) = (   0.6666667   0.1924501   0.1451516  )
        22        Se     tau(  22) = (  -0.1666667   0.4811252   0.1451516  )
        23        Se     tau(  23) = (   0.1666667   0.4811252   0.1451516  )
        24        Se     tau(  24) = (   0.5000000   0.4811252   0.1451516  )
        25        Se     tau(  25) = (  -0.3333333   0.7698004   0.1451516  )
        26        Se     tau(  26) = (   0.0000000   0.7698004   0.1451516  )
        27        Se     tau(  27) = (   0.3333333   0.7698004   0.1451516  )
        28        Se     tau(  28) = (   0.1666667   0.0962250   1.1325986  )
        29        Se     tau(  29) = (   0.5000000   0.0962250   1.1325986  )
        30        Se     tau(  30) = (   0.8333333   0.0962250   1.1325986  )
        31        Se     tau(  31) = (  -0.0000000   0.3849002   1.1325986  )
        32        Se     tau(  32) = (   0.3333333   0.3849002   1.1325986  )
        33        Se     tau(  33) = (   0.6666667   0.3849002   1.1325986  )
        34        Se     tau(  34) = (  -0.1666667   0.6735753   1.1325986  )
        35        Se     tau(  35) = (   0.1666667   0.6735753   1.1325986  )
        36        Se     tau(  36) = (   0.5000000   0.6735753   1.1325986  )
        37        Se     tau(  37) = (   0.1666667   0.0962250   0.7840267  )
        38        Se     tau(  38) = (   0.5000000   0.0962250   0.7840267  )
        39        Se     tau(  39) = (   0.8333333   0.0962250   0.7840267  )
        40        Se     tau(  40) = (  -0.0000000   0.3849002   0.7840267  )
        41        Se     tau(  41) = (   0.3333333   0.3849002   0.7840267  )
        42        Se     tau(  42) = (   0.6666667   0.3849002   0.7840267  )
        43        Se     tau(  43) = (  -0.1666667   0.6735753   0.7840267  )
        44        Se     tau(  44) = (   0.1666667   0.6735753   0.7840267  )
        45        Se     tau(  45) = (   0.5000000   0.6735753   0.7840267  )
        46        Se     tau(  46) = (  -0.0000000   0.1924501   0.4937235  )
        47        Se     tau(  47) = (   0.3333333   0.1924501   0.4937235  )
        48        Se     tau(  48) = (   0.6666667   0.1924501   0.4937235  )
        49        Se     tau(  49) = (  -0.1666667   0.4811252   0.4937235  )
        50        Se     tau(  50) = (   0.1666667   0.4811252   0.4937235  )
        51        Se     tau(  51) = (   0.5000000   0.4811252   0.4937235  )
        52        Se     tau(  52) = (  -0.3333333   0.7698004   0.4937235  )
        53        Se     tau(  53) = (   0.0000000   0.7698004   0.4937235  )
        54        Se     tau(  54) = (   0.3333333   0.7698004   0.4937235  )

     -------------------------------------------------
     Parameters for Dispersion (Grimme-D2) Correction:
     -------------------------------------------------
       atom      VdW radius       C_6     

        W          3.349       2818.308
        Se         3.347        438.498

     number of k points=    12
                       cart. coord. in units 2pi/alat
        k(    1) = (   0.2500000   0.4330127   0.1956564), wk =   0.1666667
        k(    2) = (   0.2500000  -0.1443376   0.1956564), wk =   0.1666667
        k(    3) = (  -0.2500000  -0.4330127   0.1956564), wk =   0.1666667
        k(    4) = (  -0.2500000   0.4330127  -0.1956564), wk =   0.1666667
        k(    5) = (   0.2500000  -0.4330127  -0.1956564), wk =   0.1666667
        k(    6) = (   0.5000000  -0.0000000   0.1956564), wk =   0.1666667
        k(    7) = (  -0.5000000   0.0000000   0.1956564), wk =   0.1666667
        k(    8) = (  -0.2500000   0.1443376   0.1956564), wk =   0.1666667
        k(    9) = (  -0.2500000  -0.1443376  -0.1956564), wk =   0.1666667
        k(   10) = (   0.2500000   0.1443376  -0.1956564), wk =   0.1666667
        k(   11) = (   0.0000000  -0.2886751   0.1956564), wk =   0.1666667
        k(   12) = (   0.0000000   0.2886751   0.1956564), wk =   0.1666667

     Dense  grid:   657343 G-vectors     FFT dimensions: ( 108, 108, 135)

     Estimated max dynamical RAM per process >     112.37 MB

     Estimated total dynamical RAM >      27.62 GB

     Initial potential from superposition of free atoms

     starting charge     827.9882, renormalised to     828.0000
     Starting wfcs are  504 randomized atomic wfcs

     total cpu time spent up to now is       12.2 secs

     Self-consistent Calculation

     iteration #  1     ecut=    80.00 Ry     beta= 0.50
     Davidson diagonalization with overlap
     ethr =  1.00E-02,  avg # of iterations =  2.0

     Threshold (ethr) on eigenvalues was too large:
     Diagonalizing with lowered threshold

     Davidson diagonalization with overlap
     ethr =  1.04E-04,  avg # of iterations =  5.0

     total cpu time spent up to now is       86.6 secs

     total energy              =  -11463.29215310 Ry
     estimated scf accuracy    <       1.41011792 Ry

     iteration #  2     ecut=    80.00 Ry     beta= 0.50
     Davidson diagonalization with overlap
     ethr =  1.70E-04,  avg # of iterations =  5.4

     total cpu time spent up to now is      123.5 secs

     total energy              =  -11463.30811347 Ry
     estimated scf accuracy    <       1.57949189 Ry

     iteration #  3     ecut=    80.00 Ry     beta= 0.50
     Davidson diagonalization with overlap
     ethr =  1.70E-04,  avg # of iterations =  6.0

     total cpu time spent up to now is      158.7 secs

     total energy              =  -11463.62213724 Ry
     estimated scf accuracy    <       0.13934999 Ry

     iteration #  4     ecut=    80.00 Ry     beta= 0.50
     Davidson diagonalization with overlap
     ethr =  1.68E-05,  avg # of iterations =  5.1

     total cpu time spent up to now is      190.6 secs

     total energy              =  -11463.62919208 Ry
     estimated scf accuracy    <       0.03097003 Ry

     iteration #  5     ecut=    80.00 Ry     beta= 0.50
     Davidson diagonalization with overlap
     ethr =  3.74E-06,  avg # of iterations =  6.0

     total cpu time spent up to now is      230.6 secs

     total energy              =  -11463.64101141 Ry
     estimated scf accuracy    <       0.02189207 Ry

     iteration #  6     ecut=    80.00 Ry     beta= 0.50
     Davidson diagonalization with overlap
     ethr =  2.64E-06,  avg # of iterations =  2.0

     total cpu time spent up to now is      256.7 secs

     total energy              =  -11463.63761641 Ry
     estimated scf accuracy    <       0.00996347 Ry

     iteration #  7     ecut=    80.00 Ry     beta= 0.50
     Davidson diagonalization with overlap
     ethr =  1.20E-06,  avg # of iterations =  6.0

     total cpu time spent up to now is      297.9 secs

     total energy              =  -11463.64179044 Ry
     estimated scf accuracy    <       0.00930012 Ry

     iteration #  8     ecut=    80.00 Ry     beta= 0.50
     Davidson diagonalization with overlap
     ethr =  1.12E-06,  avg # of iterations =  1.8

     total cpu time spent up to now is      322.4 secs

     total energy              =  -11463.63999864 Ry
     estimated scf accuracy    <       0.00703255 Ry

     iteration #  9     ecut=    80.00 Ry     beta= 0.50
     Davidson diagonalization with overlap
     ethr =  8.49E-07,  avg # of iterations =  5.2

     total cpu time spent up to now is      354.5 secs

     total energy              =  -11463.64095052 Ry
     estimated scf accuracy    <       0.00021453 Ry

     iteration # 10     ecut=    80.00 Ry     beta= 0.50
     Davidson diagonalization with overlap
     ethr =  2.59E-08,  avg # of iterations =  6.5

     total cpu time spent up to now is      398.3 secs

     total energy              =  -11463.64106251 Ry
     estimated scf accuracy    <       0.00028956 Ry

     iteration # 11     ecut=    80.00 Ry     beta= 0.50
     Davidson diagonalization with overlap
     ethr =  2.59E-08,  avg # of iterations =  3.6

     total cpu time spent up to now is      429.1 secs

     total energy              =  -11463.64108603 Ry
     estimated scf accuracy    <       0.00002666 Ry

     iteration # 12     ecut=    80.00 Ry     beta= 0.50
     Davidson diagonalization with overlap
     ethr =  3.22E-09,  avg # of iterations =  6.0

     total cpu time spent up to now is      470.1 secs

     total energy              =  -11463.64109383 Ry
     estimated scf accuracy    <       0.00001342 Ry

     iteration # 13     ecut=    80.00 Ry     beta= 0.50
     Davidson diagonalization with overlap
     ethr =  1.62E-09,  avg # of iterations =  3.6

     total cpu time spent up to now is      500.5 secs

     total energy              =  -11463.64109407 Ry
     estimated scf accuracy    <       0.00000278 Ry

     iteration # 14     ecut=    80.00 Ry     beta= 0.50
     Davidson diagonalization with overlap
     ethr =  3.35E-10,  avg # of iterations =  6.1

     total cpu time spent up to now is      542.2 secs

     total energy              =  -11463.64109496 Ry
     estimated scf accuracy    <       0.00000223 Ry

     iteration # 15     ecut=    80.00 Ry     beta= 0.50
     Davidson diagonalization with overlap
     ethr =  2.70E-10,  avg # of iterations =  2.0

     total cpu time spent up to now is      568.1 secs

     total energy              =  -11463.64109468 Ry
     estimated scf accuracy    <       0.00000102 Ry

     iteration # 16     ecut=    80.00 Ry     beta= 0.50
     Davidson diagonalization with overlap
     ethr =  1.23E-10,  avg # of iterations =  6.5

     total cpu time spent up to now is      607.2 secs

     total energy              =  -11463.64109496 Ry
     estimated scf accuracy    <       0.00000079 Ry

     iteration # 17     ecut=    80.00 Ry     beta= 0.50
     Davidson diagonalization with overlap
     ethr =  9.59E-11,  avg # of iterations =  2.1

     total cpu time spent up to now is      634.2 secs

     total energy              =  -11463.64109493 Ry
     estimated scf accuracy    <       0.00000029 Ry

     iteration # 18     ecut=    80.00 Ry     beta= 0.50
     Davidson diagonalization with overlap
     ethr =  3.46E-11,  avg # of iterations =  6.0

     total cpu time spent up to now is      671.0 secs

     total energy              =  -11463.64109500 Ry
     estimated scf accuracy    <       0.00000003 Ry

     iteration # 19     ecut=    80.00 Ry     beta= 0.50
     Davidson diagonalization with overlap
     ethr =  3.91E-12,  avg # of iterations =  3.2

     total cpu time spent up to now is      699.3 secs

     total energy              =  -11463.64109499 Ry
     estimated scf accuracy    <       0.00000002 Ry

     iteration # 20     ecut=    80.00 Ry     beta= 0.50
     Davidson diagonalization with overlap
     ethr =  2.71E-12,  avg # of iterations =  6.0

     total cpu time spent up to now is      728.8 secs

     total energy              =  -11463.64109500 Ry
     estimated scf accuracy    <          4.0E-09 Ry

     iteration # 21     ecut=    80.00 Ry     beta= 0.50
     Davidson diagonalization with overlap
     ethr =  4.87E-13,  avg # of iterations =  6.1

     total cpu time spent up to now is      766.3 secs

     total energy              =  -11463.64109500 Ry
     estimated scf accuracy    <          8.4E-10 Ry

     iteration # 22     ecut=    80.00 Ry     beta= 0.50
     Davidson diagonalization with overlap
     ethr =  1.01E-13,  avg # of iterations =  6.6

     total cpu time spent up to now is      803.5 secs

     total energy              =  -11463.64109500 Ry
     estimated scf accuracy    <          1.8E-09 Ry

     iteration # 23     ecut=    80.00 Ry     beta= 0.50
     Davidson diagonalization with overlap
     ethr =  1.01E-13,  avg # of iterations =  4.8

     total cpu time spent up to now is      832.5 secs

     total energy              =  -11463.64109500 Ry
     estimated scf accuracy    <          7.4E-10 Ry

     iteration # 24     ecut=    80.00 Ry     beta= 0.50
     Davidson diagonalization with overlap
     ethr =  1.00E-13,  avg # of iterations =  6.2

     total cpu time spent up to now is      867.5 secs

     End of self-consistent calculation

          k = 0.2500 0.4330 0.1957 ( 82195 PWs)   bands (ev):

   -59.3205 -59.3203 -59.3178 -59.3175 -59.3174 -59.3173 -59.3121 -59.3117
   -59.3117 -59.3117 -59.3102 -59.3097 -59.3096 -59.3096 -59.3096 -59.3093
   -59.3088 -59.3084 -33.0341 -33.0339 -33.0318 -33.0316 -33.0314 -33.0313
   -33.0312 -33.0312 -33.0312 -33.0311 -33.0311 -33.0310 -33.0310 -33.0308
   -33.0307 -33.0307 -33.0307 -33.0306 -33.0305 -33.0305 -33.0305 -33.0305
   -33.0305 -33.0304 -33.0303 -33.0303 -33.0302 -33.0301 -33.0299 -33.0299
   -33.0299 -33.0298 -33.0298 -33.0297 -33.0296 -33.0295 -33.0295 -33.0293
   -33.0292 -33.0292 -33.0291 -33.0289 -33.0288 -33.0288 -33.0287 -33.0287
   -33.0282 -33.0282 -33.0277 -33.0274 -33.0272 -33.0271 -33.0270 -33.0269
   -33.0269 -33.0268 -33.0266 -33.0266 -33.0265 -33.0264 -33.0264 -33.0263
   -33.0262 -33.0260 -33.0259 -33.0258 -33.0257 -33.0256 -33.0256 -33.0256
   -33.0253 -33.0251 -33.0058 -33.0053 -33.0042 -33.0040 -33.0039 -33.0038
   -33.0037 -33.0037 -33.0036 -33.0034 -33.0034 -33.0033 -33.0032 -33.0031
   -33.0031 -33.0030 -33.0029 -33.0029 -33.0029 -33.0028 -33.0027 -33.0027
   -33.0027 -33.0027 -33.0026 -33.0026 -33.0025 -33.0025 -33.0024 -33.0024
   -33.0024 -33.0023 -33.0023 -33.0021 -33.0021 -33.0021 -33.0020 -33.0019
   -33.0019 -33.0018 -33.0018 -33.0017 -33.0017 -33.0016 -33.0016 -33.0016
   -33.0015 -33.0014 -33.0014 -33.0014 -33.0013 -33.0013 -33.0012 -33.0012
   -33.0012 -33.0011 -33.0011 -33.0010 -33.0010 -33.0008 -33.0008 -33.0007
   -33.0006 -33.0006 -33.0005 -33.0004 -33.0004 -33.0003 -33.0002 -33.0000
   -33.0000 -32.9998 -32.9909 -32.9901 -32.9898 -32.9897 -32.9892 -32.9892
   -32.9890 -32.9888 -32.9885 -32.9884 -32.9882 -32.9882 -32.9881 -32.9880
   -32.9880 -32.9878 -32.9877 -32.9877 -32.9876 -32.9875 -32.9875 -32.9874
   -32.9871 -32.9869 -32.9865 -32.9863 -32.9861 -32.9859 -32.9859 -32.9857
   -32.9857 -32.9855 -32.9854 -32.9854 -32.9852 -32.9850 -23.6931 -23.6928
   -23.6925 -23.6924 -23.6802 -23.6797 -23.6512 -23.6508 -23.6342 -23.6340
   -23.6336 -23.6335 -23.5973 -23.5970 -23.5847 -23.5842 -23.5842 -23.5842
   -23.5590 -23.5585 -23.5585 -23.5585 -23.5497 -23.5494 -23.5491 -23.5491
   -23.5490 -23.5489 -23.5458 -23.5456 -23.5411 -23.5406 -23.5350 -23.5348
   -23.5345 -23.5345 -23.5316 -23.5312 -23.5035 -23.5033 -23.5030 -23.5030
   -23.4984 -23.4982 -23.4979 -23.4979 -23.4758 -23.4754 -23.4523 -23.4521
   -23.4518 -23.4518 -23.4354 -23.4349  -0.3227  -0.0140   0.0890   0.0903
     0.3816   0.3831   0.7648   1.0129   1.0138   1.1028   1.1040   1.2469
     1.3077   1.3088   1.4364   1.4374   1.5786   1.6221   1.6234   1.6307
     1.6319   1.7043   1.7400   1.7409   1.8170   1.8638   1.8650   1.8892
     1.9027   1.9049   1.9058   2.0047   2.0055   2.0092   2.0351   2.0696
     7.9044   7.9735   7.9744   8.2089   8.3175   8.3186   8.3767   8.3776
     8.5110   8.7970   8.8919   8.8996   8.9008   8.9644   9.0521   9.0533
     9.0541   9.0911   9.1552   9.1555   9.1769   9.1776   9.3244   9.3379
     9.3389   9.5242   9.6395   9.6403   9.7716   9.7731   9.9943   9.9953
    10.0584  10.1570  10.1584  10.2034  10.2250  10.4649  10.4658  10.5752
    10.5869  10.5870  10.6712  10.6721  10.7068  10.7083  10.8564  10.8739
    10.8750  11.0188  11.0194  11.0595  11.1374  11.1485  11.2622  11.4284
    11.4293  11.4494  11.4564  11.5088  11.5317  11.5330  11.5400  11.5408
    11.6087  11.6089  11.6183  11.6881  12.0217  12.0228  12.0789  12.1020
    12.1034  12.1444  12.1611  12.1623  12.1802  12.1818  12.3016  12.3024
    12.3491  12.4035  12.4461  12.4470  12.5829  12.6464  12.6745  12.7962
    12.7970  12.7984  12.7990  12.8047  12.8313  12.8841  12.8849  12.9312
    12.9319  12.9362  13.0132  13.0140  13.0351  13.0364  13.2571  13.2592
    13.4431  13.4919  13.4931  13.5465  13.8755  13.8764  13.8783  13.8788
    13.8848  13.8853  13.8858  13.8870  13.9924  13.9928  14.0047  14.0639
    14.1583  14.1592  14.2018  14.3301  14.3835  14.4184

          k = 0.2500-0.1443 0.1957 ( 82157 PWs)   bands (ev):

   -59.3221 -59.3220 -59.3164 -59.3162 -59.3145 -59.3141 -59.3141 -59.3141
   -59.3115 -59.3114 -59.3113 -59.3112 -59.3105 -59.3105 -59.3085 -59.3084
   -59.3084 -59.3080 -33.0341 -33.0341 -33.0320 -33.0318 -33.0316 -33.0315
   -33.0314 -33.0314 -33.0313 -33.0312 -33.0311 -33.0311 -33.0310 -33.0310
   -33.0309 -33.0308 -33.0308 -33.0308 -33.0308 -33.0307 -33.0307 -33.0306
   -33.0305 -33.0305 -33.0304 -33.0303 -33.0302 -33.0302 -33.0301 -33.0301
   -33.0300 -33.0299 -33.0299 -33.0298 -33.0294 -33.0294 -33.0291 -33.0290
   -33.0288 -33.0284 -33.0283 -33.0282 -33.0282 -33.0281 -33.0279 -33.0278
   -33.0276 -33.0275 -33.0274 -33.0274 -33.0272 -33.0271 -33.0270 -33.0270
   -33.0269 -33.0269 -33.0268 -33.0266 -33.0266 -33.0266 -33.0265 -33.0264
   -33.0264 -33.0264 -33.0262 -33.0262 -33.0261 -33.0258 -33.0258 -33.0258
   -33.0257 -33.0253 -33.0058 -33.0053 -33.0043 -33.0042 -33.0038 -33.0036
   -33.0036 -33.0035 -33.0035 -33.0034 -33.0033 -33.0033 -33.0032 -33.0032
   -33.0030 -33.0029 -33.0029 -33.0028 -33.0028 -33.0028 -33.0028 -33.0028
   -33.0027 -33.0027 -33.0026 -33.0026 -33.0025 -33.0025 -33.0024 -33.0024
   -33.0023 -33.0023 -33.0022 -33.0022 -33.0021 -33.0021 -33.0021 -33.0020
   -33.0020 -33.0019 -33.0019 -33.0018 -33.0018 -33.0017 -33.0017 -33.0016
   -33.0016 -33.0016 -33.0016 -33.0015 -33.0014 -33.0013 -33.0013 -33.0012
   -33.0011 -33.0011 -33.0010 -33.0010 -33.0009 -33.0009 -33.0008 -33.0007
   -33.0007 -33.0006 -33.0003 -33.0003 -33.0002 -33.0001 -33.0001 -33.0000
   -32.9999 -32.9998 -32.9911 -32.9902 -32.9900 -32.9895 -32.9891 -32.9890
   -32.9889 -32.9886 -32.9885 -32.9885 -32.9885 -32.9884 -32.9882 -32.9880
   -32.9880 -32.9879 -32.9879 -32.9878 -32.9875 -32.9874 -32.9874 -32.9871
   -32.9868 -32.9867 -32.9864 -32.9863 -32.9863 -32.9861 -32.9860 -32.9858
   -32.9857 -32.9856 -32.9855 -32.9854 -32.9851 -32.9850 -23.6848 -23.6843
   -23.6601 -23.6597 -23.6594 -23.6594 -23.6549 -23.6545 -23.6542 -23.6542
   -23.6047 -23.6044 -23.6024 -23.6020 -23.6018 -23.6018 -23.5790 -23.5787
   -23.5697 -23.5696 -23.5694 -23.5693 -23.5693 -23.5692 -23.5688 -23.5688
   -23.5642 -23.5637 -23.5568 -23.5568 -23.5565 -23.5565 -23.5533 -23.5530
   -23.5439 -23.5439 -23.5437 -23.5436 -23.4887 -23.4885 -23.4882 -23.4881
   -23.4832 -23.4828 -23.4718 -23.4717 -23.4713 -23.4713 -23.4547 -23.4543
   -23.4410 -23.4405 -23.4260 -23.4257  -0.5418  -0.2277   0.2808   0.5628
     0.6326   0.6371   0.6382   0.8928   0.8941   1.1278   1.1435   1.2138
     1.2150   1.3419   1.3426   1.4005   1.4017   1.4087   1.5208   1.5607
     1.6739   1.6748   1.6807   1.6815   1.7841   1.8910   1.8920   1.9155
     1.9166   1.9411   1.9678   1.9686   2.0685   2.0697   2.1154   2.1164
     7.6364   8.0856   8.4404   8.4737   8.4741   8.5503   8.6865   8.6874
     8.7249   8.8163   8.8177   8.8183   8.8189   8.8443   8.8451   8.9918
     8.9925   9.1485   9.1851   9.1864   9.2832   9.3808   9.3811   9.3956
     9.4428   9.4433   9.4622   9.4625   9.7076   9.7091   9.9027   9.9036
     9.9886  10.0515  10.0521  10.1780  10.1910  10.1915  10.2897  10.3719
    10.3735  10.5389  10.5398  10.6633  10.6636  10.7022  10.7036  10.7052
    10.7057  10.7275  10.7654  10.7877  10.7890  11.1574  11.1971  11.3240
    11.3253  11.4127  11.4146  11.4480  11.4491  11.5885  11.5888  11.6669
    11.6773  11.6782  11.8019  11.9138  11.9156  12.0187  12.0586  12.1091
    12.1923  12.1926  12.3541  12.4334  12.4343  12.4656  12.4674  12.4718
    12.4992  12.5181  12.5186  12.5394  12.5400  12.6176  12.7619  12.7623
    12.7746  12.8334  12.8343  12.8520  12.8525  12.9372  12.9381  12.9630
    12.9632  13.1307  13.1642  13.1717  13.1723  13.2510  13.2710  13.3168
    13.4034  13.4839  13.5007  13.5464  13.5847  13.6101  13.6547  13.7235
    13.7241  13.7656  13.7662  13.8267  13.8273  13.9160  13.9519  13.9521
    14.2333  14.2335  14.5188  14.5189  14.5443  14.8078

          k =-0.2500-0.4330 0.1957 ( 82195 PWs)   bands (ev):

   -59.3205 -59.3203 -59.3178 -59.3175 -59.3174 -59.3173 -59.3121 -59.3117
   -59.3117 -59.3117 -59.3102 -59.3097 -59.3096 -59.3096 -59.3096 -59.3093
   -59.3088 -59.3084 -33.0341 -33.0339 -33.0318 -33.0316 -33.0314 -33.0313
   -33.0312 -33.0312 -33.0312 -33.0311 -33.0311 -33.0310 -33.0310 -33.0308
   -33.0307 -33.0307 -33.0307 -33.0306 -33.0305 -33.0305 -33.0305 -33.0305
   -33.0305 -33.0304 -33.0303 -33.0303 -33.0302 -33.0301 -33.0299 -33.0299
   -33.0299 -33.0298 -33.0298 -33.0297 -33.0296 -33.0295 -33.0295 -33.0293
   -33.0292 -33.0292 -33.0291 -33.0289 -33.0288 -33.0288 -33.0287 -33.0287
   -33.0282 -33.0282 -33.0277 -33.0274 -33.0272 -33.0271 -33.0270 -33.0269
   -33.0269 -33.0268 -33.0266 -33.0266 -33.0265 -33.0264 -33.0264 -33.0263
   -33.0262 -33.0260 -33.0259 -33.0258 -33.0257 -33.0256 -33.0256 -33.0256
   -33.0253 -33.0251 -33.0058 -33.0053 -33.0042 -33.0040 -33.0039 -33.0038
   -33.0038 -33.0037 -33.0036 -33.0034 -33.0034 -33.0033 -33.0032 -33.0031
   -33.0031 -33.0030 -33.0030 -33.0029 -33.0028 -33.0028 -33.0027 -33.0027
   -33.0027 -33.0026 -33.0026 -33.0026 -33.0025 -33.0025 -33.0024 -33.0024
   -33.0024 -33.0023 -33.0022 -33.0022 -33.0021 -33.0020 -33.0020 -33.0019
   -33.0019 -33.0018 -33.0018 -33.0017 -33.0017 -33.0016 -33.0016 -33.0016
   -33.0015 -33.0014 -33.0014 -33.0014 -33.0013 -33.0013 -33.0012 -33.0012
   -33.0012 -33.0011 -33.0010 -33.0010 -33.0010 -33.0008 -33.0008 -33.0007
   -33.0006 -33.0006 -33.0005 -33.0004 -33.0004 -33.0003 -33.0002 -33.0000
   -33.0000 -32.9998 -32.9909 -32.9901 -32.9898 -32.9897 -32.9892 -32.9892
   -32.9890 -32.9888 -32.9885 -32.9884 -32.9882 -32.9881 -32.9881 -32.9880
   -32.9880 -32.9878 -32.9877 -32.9877 -32.9876 -32.9875 -32.9875 -32.9874
   -32.9871 -32.9869 -32.9865 -32.9863 -32.9861 -32.9859 -32.9859 -32.9857
   -32.9857 -32.9855 -32.9854 -32.9854 -32.9852 -32.9850 -23.6931 -23.6928
   -23.6925 -23.6924 -23.6802 -23.6797 -23.6512 -23.6508 -23.6342 -23.6340
   -23.6336 -23.6335 -23.5973 -23.5970 -23.5847 -23.5842 -23.5842 -23.5842
   -23.5590 -23.5585 -23.5585 -23.5585 -23.5497 -23.5494 -23.5491 -23.5491
   -23.5490 -23.5489 -23.5458 -23.5456 -23.5411 -23.5406 -23.5350 -23.5348
   -23.5345 -23.5345 -23.5316 -23.5312 -23.5035 -23.5033 -23.5030 -23.5030
   -23.4984 -23.4982 -23.4979 -23.4979 -23.4758 -23.4754 -23.4523 -23.4521
   -23.4518 -23.4518 -23.4354 -23.4349  -0.3227  -0.0140   0.0890   0.0903
     0.3816   0.3831   0.7648   1.0129   1.0138   1.1028   1.1040   1.2469
     1.3077   1.3089   1.4364   1.4374   1.5786   1.6221   1.6233   1.6308
     1.6319   1.7043   1.7399   1.7409   1.8170   1.8638   1.8650   1.8892
     1.9027   1.9050   1.9058   2.0046   2.0055   2.0092   2.0351   2.0696
     7.9044   7.9735   7.9744   8.2090   8.3175   8.3186   8.3766   8.3775
     8.5110   8.7969   8.8919   8.8996   8.9007   8.9644   9.0523   9.0533
     9.0539   9.0911   9.1550   9.1556   9.1770   9.1776   9.3245   9.3381
     9.3389   9.5241   9.6394   9.6403   9.7716   9.7731   9.9942   9.9954
    10.0582  10.1570  10.1585  10.2036  10.2249  10.4648  10.4656  10.5755
    10.5869  10.5870  10.6711  10.6719  10.7068  10.7081  10.8563  10.8740
    10.8749  11.0190  11.0194  11.0596  11.1374  11.1482  11.2624  11.4287
    11.4292  11.4497  11.4564  11.5088  11.5316  11.5330  11.5400  11.5407
    11.6087  11.6091  11.6182  11.6881  12.0216  12.0227  12.0787  12.1019
    12.1034  12.1446  12.1611  12.1622  12.1804  12.1818  12.3017  12.3024
    12.3489  12.4037  12.4462  12.4470  12.5828  12.6464  12.6745  12.7963
    12.7972  12.7983  12.7987  12.8045  12.8312  12.8841  12.8848  12.9313
    12.9320  12.9362  13.0133  13.0139  13.0351  13.0366  13.2570  13.2591
    13.4431  13.4918  13.4932  13.5468  13.8756  13.8767  13.8783  13.8787
    13.8846  13.8853  13.8859  13.8869  13.9922  13.9928  14.0046  14.0640
    14.1583  14.1592  14.2018  14.3298  14.3835  14.4185

          k =-0.2500 0.4330-0.1957 ( 82195 PWs)   bands (ev):

   -59.3205 -59.3203 -59.3179 -59.3175 -59.3174 -59.3172 -59.3122 -59.3117
   -59.3117 -59.3116 -59.3102 -59.3099 -59.3096 -59.3096 -59.3096 -59.3091
   -59.3088 -59.3084 -33.0340 -33.0340 -33.0318 -33.0316 -33.0314 -33.0313
   -33.0312 -33.0312 -33.0312 -33.0311 -33.0311 -33.0310 -33.0309 -33.0308
   -33.0307 -33.0307 -33.0307 -33.0306 -33.0306 -33.0305 -33.0305 -33.0305
   -33.0304 -33.0304 -33.0303 -33.0303 -33.0302 -33.0301 -33.0300 -33.0299
   -33.0298 -33.0298 -33.0298 -33.0297 -33.0296 -33.0295 -33.0295 -33.0294
   -33.0292 -33.0291 -33.0291 -33.0289 -33.0288 -33.0288 -33.0287 -33.0287
   -33.0282 -33.0282 -33.0277 -33.0274 -33.0273 -33.0271 -33.0270 -33.0269
   -33.0268 -33.0268 -33.0266 -33.0266 -33.0265 -33.0265 -33.0264 -33.0263
   -33.0263 -33.0260 -33.0259 -33.0258 -33.0257 -33.0256 -33.0256 -33.0256
   -33.0252 -33.0252 -33.0058 -33.0053 -33.0041 -33.0040 -33.0039 -33.0039
   -33.0037 -33.0037 -33.0036 -33.0034 -33.0034 -33.0033 -33.0032 -33.0031
   -33.0031 -33.0030 -33.0030 -33.0029 -33.0029 -33.0028 -33.0027 -33.0027
   -33.0027 -33.0026 -33.0026 -33.0026 -33.0025 -33.0025 -33.0024 -33.0024
   -33.0023 -33.0023 -33.0022 -33.0022 -33.0021 -33.0020 -33.0020 -33.0020
   -33.0019 -33.0019 -33.0018 -33.0017 -33.0017 -33.0016 -33.0016 -33.0015
   -33.0015 -33.0014 -33.0014 -33.0013 -33.0013 -33.0013 -33.0013 -33.0012
   -33.0012 -33.0011 -33.0010 -33.0010 -33.0009 -33.0008 -33.0008 -33.0007
   -33.0007 -33.0006 -33.0006 -33.0004 -33.0004 -33.0003 -33.0002 -33.0000
   -32.9999 -32.9999 -32.9909 -32.9901 -32.9898 -32.9897 -32.9892 -32.9892
   -32.9890 -32.9888 -32.9885 -32.9884 -32.9883 -32.9881 -32.9881 -32.9880
   -32.9880 -32.9878 -32.9877 -32.9877 -32.9876 -32.9876 -32.9875 -32.9874
   -32.9871 -32.9869 -32.9865 -32.9863 -32.9860 -32.9860 -32.9858 -32.9858
   -32.9857 -32.9855 -32.9854 -32.9853 -32.9852 -32.9850 -23.6931 -23.6928
   -23.6925 -23.6924 -23.6801 -23.6797 -23.6513 -23.6508 -23.6342 -23.6337
   -23.6336 -23.6335 -23.5973 -23.5970 -23.5846 -23.5843 -23.5842 -23.5842
   -23.5590 -23.5586 -23.5585 -23.5585 -23.5497 -23.5492 -23.5491 -23.5491
   -23.5491 -23.5490 -23.5458 -23.5456 -23.5410 -23.5406 -23.5351 -23.5347
   -23.5345 -23.5345 -23.5317 -23.5312 -23.5035 -23.5034 -23.5030 -23.5030
   -23.4985 -23.4980 -23.4979 -23.4979 -23.4759 -23.4754 -23.4524 -23.4520
   -23.4518 -23.4518 -23.4353 -23.4349  -0.3226  -0.0140   0.0890   0.0903
     0.3816   0.3831   0.7648   1.0129   1.0138   1.1026   1.1039   1.2469
     1.3076   1.3088   1.4364   1.4374   1.5788   1.6223   1.6233   1.6312
     1.6318   1.7043   1.7401   1.7409   1.8167   1.8641   1.8650   1.8890
     1.9026   1.9049   1.9057   2.0042   2.0055   2.0093   2.0350   2.0700
     7.9044   7.9735   7.9740   8.2092   8.3175   8.3182   8.3768   8.3775
     8.5114   8.7969   8.8918   8.8997   8.9007   8.9644   9.0523   9.0533
     9.0537   9.0910   9.1554   9.1557   9.1771   9.1778   9.3248   9.3379
     9.3389   9.5244   9.6394   9.6403   9.7716   9.7730   9.9948   9.9955
    10.0577  10.1564  10.1582  10.2033  10.2254  10.4642  10.4658  10.5747
    10.5867  10.5871  10.6711  10.6721  10.7075  10.7080  10.8561  10.8740
    10.8750  11.0185  11.0198  11.0592  11.1373  11.1483  11.2621  11.4282
    11.4292  11.4495  11.4566  11.5091  11.5323  11.5329  11.5398  11.5408
    11.6077  11.6094  11.6187  11.6880  12.0222  12.0225  12.0788  12.1018
    12.1036  12.1452  12.1610  12.1618  12.1808  12.1815  12.3014  12.3028
    12.3483  12.4032  12.4461  12.4466  12.5831  12.6462  12.6743  12.7965
    12.7970  12.7984  12.7995  12.8049  12.8321  12.8842  12.8848  12.9311
    12.9319  12.9370  13.0133  13.0143  13.0352  13.0361  13.2576  13.2590
    13.4426  13.4921  13.4928  13.5464  13.8758  13.8762  13.8782  13.8789
    13.8844  13.8855  13.8858  13.8868  13.9923  13.9931  14.0047  14.0642
    14.1582  14.1592  14.2017  14.3300  14.3836  14.4180

          k = 0.2500-0.4330-0.1957 ( 82195 PWs)   bands (ev):

   -59.3205 -59.3203 -59.3179 -59.3175 -59.3174 -59.3172 -59.3122 -59.3117
   -59.3117 -59.3116 -59.3102 -59.3099 -59.3096 -59.3096 -59.3096 -59.3091
   -59.3088 -59.3084 -33.0340 -33.0340 -33.0318 -33.0316 -33.0314 -33.0313
   -33.0312 -33.0312 -33.0312 -33.0311 -33.0311 -33.0310 -33.0309 -33.0308
   -33.0307 -33.0307 -33.0307 -33.0306 -33.0305 -33.0305 -33.0305 -33.0305
   -33.0304 -33.0304 -33.0303 -33.0303 -33.0302 -33.0301 -33.0300 -33.0299
   -33.0298 -33.0298 -33.0298 -33.0297 -33.0296 -33.0295 -33.0295 -33.0294
   -33.0292 -33.0291 -33.0291 -33.0289 -33.0288 -33.0288 -33.0287 -33.0287
   -33.0282 -33.0282 -33.0277 -33.0274 -33.0273 -33.0271 -33.0270 -33.0269
   -33.0268 -33.0268 -33.0266 -33.0266 -33.0265 -33.0265 -33.0264 -33.0263
   -33.0263 -33.0260 -33.0259 -33.0258 -33.0257 -33.0256 -33.0256 -33.0256
   -33.0252 -33.0252 -33.0058 -33.0053 -33.0041 -33.0040 -33.0039 -33.0038
   -33.0038 -33.0036 -33.0036 -33.0034 -33.0034 -33.0033 -33.0032 -33.0031
   -33.0031 -33.0030 -33.0030 -33.0029 -33.0029 -33.0028 -33.0027 -33.0027
   -33.0027 -33.0026 -33.0026 -33.0026 -33.0025 -33.0025 -33.0024 -33.0024
   -33.0023 -33.0023 -33.0022 -33.0022 -33.0021 -33.0021 -33.0020 -33.0019
   -33.0019 -33.0018 -33.0018 -33.0018 -33.0017 -33.0017 -33.0016 -33.0015
   -33.0015 -33.0014 -33.0014 -33.0014 -33.0013 -33.0013 -33.0013 -33.0012
   -33.0012 -33.0011 -33.0011 -33.0010 -33.0009 -33.0008 -33.0008 -33.0007
   -33.0006 -33.0006 -33.0005 -33.0004 -33.0004 -33.0003 -33.0002 -33.0000
   -32.9999 -32.9999 -32.9909 -32.9901 -32.9898 -32.9897 -32.9892 -32.9892
   -32.9890 -32.9888 -32.9885 -32.9884 -32.9883 -32.9881 -32.9881 -32.9880
   -32.9880 -32.9878 -32.9878 -32.9877 -32.9876 -32.9876 -32.9875 -32.9874
   -32.9871 -32.9869 -32.9865 -32.9863 -32.9860 -32.9860 -32.9858 -32.9858
   -32.9857 -32.9855 -32.9854 -32.9853 -32.9852 -32.9850 -23.6931 -23.6928
   -23.6925 -23.6924 -23.6801 -23.6797 -23.6513 -23.6508 -23.6342 -23.6337
   -23.6336 -23.6335 -23.5973 -23.5970 -23.5846 -23.5843 -23.5842 -23.5842
   -23.5590 -23.5586 -23.5585 -23.5585 -23.5497 -23.5492 -23.5491 -23.5491
   -23.5491 -23.5490 -23.5458 -23.5456 -23.5410 -23.5406 -23.5351 -23.5347
   -23.5345 -23.5345 -23.5317 -23.5312 -23.5035 -23.5034 -23.5030 -23.5030
   -23.4985 -23.4980 -23.4979 -23.4979 -23.4759 -23.4754 -23.4524 -23.4520
   -23.4518 -23.4518 -23.4353 -23.4349  -0.3226  -0.0140   0.0890   0.0903
     0.3816   0.3831   0.7648   1.0129   1.0138   1.1026   1.1039   1.2469
     1.3076   1.3088   1.4364   1.4374   1.5788   1.6222   1.6233   1.6312
     1.6318   1.7043   1.7401   1.7409   1.8167   1.8642   1.8650   1.8890
     1.9026   1.9049   1.9057   2.0042   2.0055   2.0093   2.0350   2.0700
     7.9044   7.9736   7.9740   8.2092   8.3175   8.3182   8.3767   8.3775
     8.5114   8.7968   8.8918   8.8997   8.9007   8.9644   9.0525   9.0532
     9.0536   9.0910   9.1552   9.1558   9.1771   9.1778   9.3248   9.3381
     9.3389   9.5244   9.6394   9.6403   9.7717   9.7730   9.9950   9.9953
    10.0576  10.1565  10.1583  10.2036  10.2252  10.4640  10.4658  10.5750
    10.5867  10.5872  10.6709  10.6720  10.7074  10.7079  10.8559  10.8739
    10.8751  11.0188  11.0196  11.0593  11.1374  11.1480  11.2623  11.4285
    11.4291  11.4497  11.4566  11.5091  11.5323  11.5329  11.5397  11.5409
    11.6079  11.6095  11.6186  11.6881  12.0220  12.0225  12.0786  12.1017
    12.1037  12.1453  12.1610  12.1616  12.1810  12.1815  12.3015  12.3028
    12.3481  12.4034  12.4459  12.4471  12.5830  12.6461  12.6744  12.7964
    12.7970  12.7983  12.7994  12.8045  12.8320  12.8842  12.8847  12.9312
    12.9320  12.9370  13.0133  13.0143  13.0353  13.0362  13.2575  13.2589
    13.4426  13.4919  13.4930  13.5467  13.8759  13.8765  13.8784  13.8788
    13.8842  13.8858  13.8860  13.8865  13.9922  13.9932  14.0046  14.0642
    14.1582  14.1592  14.2018  14.3297  14.3836  14.4181

          k = 0.5000-0.0000 0.1957 ( 82195 PWs)   bands (ev):

   -59.3205 -59.3203 -59.3179 -59.3174 -59.3174 -59.3173 -59.3121 -59.3117
   -59.3117 -59.3117 -59.3102 -59.3098 -59.3096 -59.3096 -59.3096 -59.3092
   -59.3088 -59.3084 -33.0341 -33.0340 -33.0318 -33.0318 -33.0313 -33.0313
   -33.0312 -33.0312 -33.0311 -33.0311 -33.0310 -33.0310 -33.0310 -33.0308
   -33.0307 -33.0307 -33.0306 -33.0306 -33.0305 -33.0305 -33.0305 -33.0305
   -33.0304 -33.0304 -33.0303 -33.0303 -33.0302 -33.0301 -33.0299 -33.0299
   -33.0299 -33.0298 -33.0298 -33.0297 -33.0296 -33.0296 -33.0295 -33.0293
   -33.0292 -33.0292 -33.0291 -33.0289 -33.0289 -33.0288 -33.0287 -33.0287
   -33.0282 -33.0282 -33.0277 -33.0274 -33.0272 -33.0272 -33.0270 -33.0269
   -33.0269 -33.0268 -33.0266 -33.0266 -33.0265 -33.0265 -33.0264 -33.0263
   -33.0262 -33.0260 -33.0259 -33.0258 -33.0257 -33.0257 -33.0256 -33.0256
   -33.0252 -33.0251 -33.0058 -33.0053 -33.0041 -33.0040 -33.0039 -33.0038
   -33.0037 -33.0036 -33.0036 -33.0035 -33.0034 -33.0032 -33.0032 -33.0031
   -33.0031 -33.0030 -33.0030 -33.0029 -33.0028 -33.0028 -33.0027 -33.0027
   -33.0027 -33.0026 -33.0026 -33.0025 -33.0025 -33.0025 -33.0024 -33.0024
   -33.0023 -33.0023 -33.0022 -33.0022 -33.0021 -33.0021 -33.0020 -33.0019
   -33.0019 -33.0019 -33.0018 -33.0017 -33.0017 -33.0016 -33.0016 -33.0015
   -33.0015 -33.0015 -33.0014 -33.0014 -33.0013 -33.0013 -33.0013 -33.0012
   -33.0011 -33.0011 -33.0010 -33.0010 -33.0009 -33.0008 -33.0008 -33.0007
   -33.0007 -33.0006 -33.0005 -33.0004 -33.0004 -33.0003 -33.0002 -33.0000
   -33.0000 -32.9998 -32.9909 -32.9901 -32.9898 -32.9897 -32.9892 -32.9892
   -32.9891 -32.9887 -32.9886 -32.9884 -32.9882 -32.9882 -32.9881 -32.9880
   -32.9880 -32.9878 -32.9877 -32.9877 -32.9876 -32.9876 -32.9875 -32.9874
   -32.9871 -32.9869 -32.9865 -32.9863 -32.9860 -32.9859 -32.9859 -32.9858
   -32.9858 -32.9855 -32.9854 -32.9853 -32.9852 -32.9850 -23.6931 -23.6928
   -23.6925 -23.6924 -23.6802 -23.6797 -23.6513 -23.6508 -23.6342 -23.6338
   -23.6336 -23.6335 -23.5973 -23.5970 -23.5846 -23.5843 -23.5842 -23.5842
   -23.5590 -23.5586 -23.5585 -23.5585 -23.5497 -23.5493 -23.5491 -23.5491
   -23.5490 -23.5490 -23.5458 -23.5456 -23.5411 -23.5406 -23.5351 -23.5348
   -23.5345 -23.5345 -23.5316 -23.5312 -23.5035 -23.5033 -23.5030 -23.5030
   -23.4984 -23.4981 -23.4979 -23.4979 -23.4758 -23.4754 -23.4523 -23.4521
   -23.4518 -23.4518 -23.4353 -23.4349  -0.3226  -0.0140   0.0893   0.0901
     0.3818   0.3829   0.7648   1.0133   1.0135   1.1029   1.1037   1.2469
     1.3077   1.3087   1.4366   1.4372   1.5787   1.6223   1.6233   1.6309
     1.6319   1.7043   1.7401   1.7409   1.8168   1.8640   1.8650   1.8891
     1.9026   1.9050   1.9057   2.0044   2.0055   2.0092   2.0351   2.0698
     7.9044   7.9735   7.9742   8.2091   8.3175   8.3184   8.3770   8.3773
     8.5112   8.7970   8.8918   8.8997   8.9007   8.9645   9.0521   9.0533
     9.0539   9.0911   9.1553   9.1556   9.1771   9.1777   9.3246   9.3379
     9.3388   9.5244   9.6395   9.6403   9.7717   9.7730   9.9945   9.9954
    10.0581  10.1568  10.1582  10.2033  10.2253  10.4647  10.4657  10.5748
    10.5867  10.5870  10.6712  10.6722  10.7071  10.7083  10.8563  10.8739
    10.8750  11.0185  11.0196  11.0593  11.1374  11.1486  11.2621  11.4281
    11.4293  11.4493  11.4565  11.5089  11.5320  11.5330  11.5401  11.5407
    11.6082  11.6091  11.6185  11.6880  12.0220  12.0227  12.0790  12.1021
    12.1034  12.1447  12.1609  12.1623  12.1804  12.1816  12.3016  12.3025
    12.3488  12.4032  12.4460  12.4469  12.5831  12.6463  12.6744  12.7965
    12.7970  12.7984  12.7993  12.8049  12.8317  12.8843  12.8848  12.9312
    12.9318  12.9366  13.0133  13.0141  13.0352  13.0361  13.2575  13.2591
    13.4429  13.4921  13.4928  13.5463  13.8756  13.8762  13.8781  13.8789
    13.8847  13.8853  13.8857  13.8870  13.9924  13.9930  14.0047  14.0640
    14.1582  14.1592  14.2017  14.3302  14.3836  14.4181

          k =-0.5000 0.0000 0.1957 ( 82195 PWs)   bands (ev):

   -59.3205 -59.3203 -59.3179 -59.3174 -59.3174 -59.3173 -59.3121 -59.3117
   -59.3117 -59.3117 -59.3102 -59.3098 -59.3096 -59.3096 -59.3096 -59.3092
   -59.3088 -59.3084 -33.0341 -33.0340 -33.0318 -33.0318 -33.0313 -33.0313
   -33.0312 -33.0312 -33.0311 -33.0311 -33.0310 -33.0310 -33.0310 -33.0308
   -33.0307 -33.0307 -33.0307 -33.0306 -33.0305 -33.0305 -33.0305 -33.0304
   -33.0304 -33.0304 -33.0303 -33.0303 -33.0302 -33.0301 -33.0300 -33.0299
   -33.0299 -33.0298 -33.0298 -33.0297 -33.0296 -33.0296 -33.0295 -33.0293
   -33.0292 -33.0292 -33.0291 -33.0289 -33.0288 -33.0288 -33.0287 -33.0287
   -33.0282 -33.0282 -33.0277 -33.0274 -33.0272 -33.0272 -33.0270 -33.0269
   -33.0269 -33.0268 -33.0266 -33.0266 -33.0265 -33.0265 -33.0264 -33.0263
   -33.0262 -33.0260 -33.0259 -33.0258 -33.0257 -33.0257 -33.0256 -33.0256
   -33.0252 -33.0251 -33.0058 -33.0053 -33.0041 -33.0040 -33.0039 -33.0038
   -33.0037 -33.0036 -33.0036 -33.0035 -33.0034 -33.0032 -33.0032 -33.0031
   -33.0031 -33.0030 -33.0030 -33.0029 -33.0028 -33.0028 -33.0027 -33.0027
   -33.0027 -33.0027 -33.0026 -33.0025 -33.0025 -33.0025 -33.0024 -33.0024
   -33.0023 -33.0023 -33.0022 -33.0022 -33.0021 -33.0021 -33.0020 -33.0020
   -33.0019 -33.0019 -33.0018 -33.0017 -33.0017 -33.0017 -33.0016 -33.0015
   -33.0015 -33.0015 -33.0014 -33.0013 -33.0013 -33.0013 -33.0013 -33.0012
   -33.0011 -33.0011 -33.0011 -33.0010 -33.0009 -33.0008 -33.0007 -33.0007
   -33.0006 -33.0006 -33.0005 -33.0004 -33.0004 -33.0003 -33.0002 -33.0000
   -33.0000 -32.9998 -32.9909 -32.9901 -32.9898 -32.9897 -32.9892 -32.9892
   -32.9891 -32.9887 -32.9886 -32.9884 -32.9882 -32.9882 -32.9881 -32.9880
   -32.9880 -32.9878 -32.9877 -32.9877 -32.9876 -32.9876 -32.9875 -32.9874
   -32.9871 -32.9869 -32.9865 -32.9863 -32.9860 -32.9859 -32.9858 -32.9858
   -32.9857 -32.9855 -32.9854 -32.9853 -32.9852 -32.9850 -23.6931 -23.6928
   -23.6925 -23.6924 -23.6802 -23.6797 -23.6513 -23.6508 -23.6342 -23.6338
   -23.6336 -23.6335 -23.5973 -23.5970 -23.5846 -23.5843 -23.5842 -23.5842
   -23.5590 -23.5586 -23.5585 -23.5585 -23.5497 -23.5493 -23.5491 -23.5491
   -23.5490 -23.5490 -23.5458 -23.5456 -23.5411 -23.5406 -23.5351 -23.5348
   -23.5345 -23.5345 -23.5316 -23.5312 -23.5035 -23.5033 -23.5030 -23.5030
   -23.4984 -23.4981 -23.4979 -23.4979 -23.4758 -23.4754 -23.4523 -23.4521
   -23.4518 -23.4518 -23.4353 -23.4349  -0.3226  -0.0140   0.0893   0.0901
     0.3818   0.3829   0.7648   1.0133   1.0135   1.1029   1.1037   1.2469
     1.3078   1.3087   1.4366   1.4372   1.5787   1.6222   1.6233   1.6310
     1.6319   1.7043   1.7401   1.7409   1.8168   1.8640   1.8650   1.8891
     1.9026   1.9050   1.9057   2.0044   2.0055   2.0092   2.0351   2.0698
     7.9044   7.9735   7.9742   8.2091   8.3175   8.3184   8.3769   8.3773
     8.5111   8.7969   8.8919   8.8998   8.9006   8.9643   9.0525   9.0532
     9.0537   9.0910   9.1550   9.1558   9.1772   9.1775   9.3247   9.3383
     9.3388   9.5242   9.6394   9.6403   9.7718   9.7730   9.9945   9.9955
    10.0578  10.1569  10.1583  10.2037  10.2250  10.4645  10.4656  10.5754
    10.5868  10.5871  10.6709  10.6718  10.7071  10.7079  10.8560  10.8740
    10.8749  11.0192  11.0194  11.0595  11.1374  11.1479  11.2625  11.4287
    11.4292  11.4498  11.4565  11.5090  11.5318  11.5330  11.5399  11.5407
    11.6085  11.6092  11.6183  11.6882  12.0218  12.0225  12.0786  12.1018
    12.1034  12.1450  12.1609  12.1621  12.1808  12.1817  12.3019  12.3024
    12.3484  12.4037  12.4459  12.4472  12.5829  12.6463  12.6745  12.7964
    12.7971  12.7982  12.7989  12.8044  12.8315  12.8842  12.8847  12.9313
    12.9320  12.9366  13.0134  13.0140  13.0353  13.0364  13.2572  13.2589
    13.4428  13.4918  13.4931  13.5469  13.8758  13.8767  13.8784  13.8787
    13.8843  13.8856  13.8859  13.8867  13.9921  13.9930  14.0046  14.0641
    14.1583  14.1591  14.2018  14.3296  14.3836  14.4183

          k =-0.2500 0.1443 0.1957 ( 82157 PWs)   bands (ev):

   -59.3221 -59.3220 -59.3164 -59.3162 -59.3145 -59.3141 -59.3141 -59.3141
   -59.3115 -59.3114 -59.3113 -59.3112 -59.3105 -59.3105 -59.3085 -59.3084
   -59.3084 -59.3080 -33.0341 -33.0341 -33.0320 -33.0318 -33.0316 -33.0315
   -33.0314 -33.0314 -33.0313 -33.0312 -33.0311 -33.0311 -33.0310 -33.0310
   -33.0309 -33.0309 -33.0308 -33.0308 -33.0308 -33.0307 -33.0307 -33.0306
   -33.0305 -33.0305 -33.0304 -33.0303 -33.0302 -33.0302 -33.0301 -33.0301
   -33.0300 -33.0299 -33.0299 -33.0298 -33.0294 -33.0294 -33.0291 -33.0290
   -33.0288 -33.0284 -33.0283 -33.0282 -33.0282 -33.0281 -33.0279 -33.0278
   -33.0276 -33.0276 -33.0274 -33.0274 -33.0272 -33.0271 -33.0270 -33.0270
   -33.0269 -33.0269 -33.0268 -33.0266 -33.0266 -33.0266 -33.0265 -33.0264
   -33.0264 -33.0264 -33.0262 -33.0262 -33.0261 -33.0258 -33.0258 -33.0258
   -33.0257 -33.0253 -33.0058 -33.0053 -33.0043 -33.0042 -33.0038 -33.0037
   -33.0036 -33.0035 -33.0035 -33.0033 -33.0033 -33.0033 -33.0032 -33.0031
   -33.0030 -33.0029 -33.0029 -33.0029 -33.0028 -33.0028 -33.0028 -33.0027
   -33.0027 -33.0026 -33.0026 -33.0026 -33.0026 -33.0025 -33.0025 -33.0023
   -33.0023 -33.0023 -33.0022 -33.0022 -33.0022 -33.0021 -33.0021 -33.0020
   -33.0019 -33.0019 -33.0018 -33.0018 -33.0018 -33.0018 -33.0017 -33.0017
   -33.0016 -33.0016 -33.0015 -33.0015 -33.0014 -33.0013 -33.0013 -33.0013
   -33.0011 -33.0011 -33.0010 -33.0010 -33.0009 -33.0009 -33.0008 -33.0007
   -33.0006 -33.0005 -33.0003 -33.0003 -33.0002 -33.0002 -33.0001 -33.0000
   -32.9999 -32.9998 -32.9911 -32.9902 -32.9899 -32.9895 -32.9891 -32.9890
   -32.9889 -32.9886 -32.9886 -32.9885 -32.9885 -32.9884 -32.9882 -32.9880
   -32.9880 -32.9880 -32.9879 -32.9878 -32.9875 -32.9874 -32.9874 -32.9871
   -32.9868 -32.9867 -32.9864 -32.9863 -32.9863 -32.9861 -32.9860 -32.9858
   -32.9857 -32.9856 -32.9855 -32.9854 -32.9851 -32.9850 -23.6848 -23.6843
   -23.6601 -23.6597 -23.6594 -23.6594 -23.6549 -23.6545 -23.6542 -23.6542
   -23.6047 -23.6044 -23.6024 -23.6020 -23.6018 -23.6018 -23.5790 -23.5787
   -23.5697 -23.5696 -23.5694 -23.5693 -23.5693 -23.5692 -23.5688 -23.5688
   -23.5642 -23.5637 -23.5568 -23.5568 -23.5565 -23.5565 -23.5533 -23.5530
   -23.5439 -23.5439 -23.5437 -23.5436 -23.4887 -23.4885 -23.4882 -23.4881
   -23.4832 -23.4828 -23.4718 -23.4717 -23.4713 -23.4713 -23.4547 -23.4543
   -23.4410 -23.4405 -23.4260 -23.4257  -0.5418  -0.2277   0.2808   0.5628
     0.6327   0.6370   0.6382   0.8927   0.8941   1.1277   1.1435   1.2138
     1.2150   1.3419   1.3426   1.4006   1.4017   1.4087   1.5208   1.5607
     1.6739   1.6748   1.6806   1.6815   1.7842   1.8911   1.8920   1.9155
     1.9166   1.9411   1.9678   1.9687   2.0684   2.0697   2.1155   2.1164
     7.6364   8.0856   8.4403   8.4737   8.4740   8.5501   8.6867   8.6875
     8.7248   8.8163   8.8176   8.8187   8.8193   8.8439   8.8450   8.9917
     8.9929   9.1486   9.1853   9.1860   9.2834   9.3810   9.3813   9.3964
     9.4423   9.4427   9.4619   9.4621   9.7076   9.7087   9.9033   9.9047
     9.9885  10.0516  10.0521  10.1783  10.1907  10.1912  10.2882  10.3729
    10.3736  10.5387  10.5401  10.6626  10.6639  10.7020  10.7040  10.7049
    10.7054  10.7275  10.7661  10.7873  10.7883  11.1574  11.1972  11.3246
    11.3254  11.4140  11.4145  11.4476  11.4492  11.5880  11.5884  11.6669
    11.6766  11.6782  11.8019  11.9143  11.9155  12.0187  12.0586  12.1095
    12.1924  12.1931  12.3540  12.4333  12.4336  12.4656  12.4669  12.4718
    12.4992  12.5184  12.5192  12.5392  12.5396  12.6175  12.7617  12.7626
    12.7743  12.8336  12.8339  12.8518  12.8528  12.9372  12.9377  12.9627
    12.9637  13.1307  13.1639  13.1720  13.1722  13.2510  13.2712  13.3168
    13.4034  13.4846  13.5005  13.5463  13.5855  13.6101  13.6543  13.7240
    13.7244  13.7650  13.7660  13.8272  13.8277  13.9160  13.9515  13.9518
    14.2332  14.2334  14.5189  14.5190  14.5440  14.8079

          k =-0.2500-0.1443-0.1957 ( 82157 PWs)   bands (ev):

   -59.3221 -59.3220 -59.3164 -59.3162 -59.3144 -59.3142 -59.3141 -59.3141
   -59.3116 -59.3113 -59.3113 -59.3112 -59.3105 -59.3105 -59.3085 -59.3084
   -59.3084 -59.3080 -33.0341 -33.0340 -33.0320 -33.0318 -33.0316 -33.0314
   -33.0314 -33.0314 -33.0313 -33.0312 -33.0311 -33.0311 -33.0310 -33.0310
   -33.0309 -33.0309 -33.0308 -33.0308 -33.0308 -33.0307 -33.0306 -33.0306
   -33.0305 -33.0305 -33.0304 -33.0303 -33.0302 -33.0302 -33.0302 -33.0301
   -33.0300 -33.0299 -33.0299 -33.0298 -33.0294 -33.0294 -33.0291 -33.0290
   -33.0287 -33.0284 -33.0283 -33.0283 -33.0282 -33.0281 -33.0279 -33.0277
   -33.0276 -33.0276 -33.0274 -33.0274 -33.0271 -33.0271 -33.0270 -33.0270
   -33.0269 -33.0269 -33.0268 -33.0266 -33.0266 -33.0266 -33.0265 -33.0264
   -33.0264 -33.0264 -33.0262 -33.0262 -33.0261 -33.0258 -33.0258 -33.0258
   -33.0257 -33.0252 -33.0058 -33.0053 -33.0043 -33.0042 -33.0038 -33.0036
   -33.0036 -33.0035 -33.0035 -33.0034 -33.0033 -33.0032 -33.0032 -33.0031
   -33.0030 -33.0029 -33.0029 -33.0029 -33.0028 -33.0028 -33.0028 -33.0027
   -33.0027 -33.0026 -33.0026 -33.0026 -33.0025 -33.0025 -33.0024 -33.0023
   -33.0023 -33.0023 -33.0022 -33.0022 -33.0021 -33.0021 -33.0020 -33.0020
   -33.0019 -33.0019 -33.0019 -33.0018 -33.0018 -33.0018 -33.0017 -33.0017
   -33.0016 -33.0016 -33.0015 -33.0015 -33.0014 -33.0014 -33.0013 -33.0012
   -33.0011 -33.0011 -33.0010 -33.0010 -33.0009 -33.0009 -33.0008 -33.0007
   -33.0007 -33.0006 -33.0003 -33.0003 -33.0002 -33.0002 -33.0001 -33.0000
   -32.9999 -32.9998 -32.9911 -32.9902 -32.9900 -32.9894 -32.9891 -32.9890
   -32.9889 -32.9887 -32.9885 -32.9885 -32.9885 -32.9884 -32.9882 -32.9880
   -32.9880 -32.9880 -32.9879 -32.9878 -32.9875 -32.9874 -32.9874 -32.9871
   -32.9868 -32.9867 -32.9864 -32.9863 -32.9862 -32.9861 -32.9860 -32.9858
   -32.9857 -32.9857 -32.9855 -32.9854 -32.9851 -32.9850 -23.6847 -23.6843
   -23.6601 -23.6598 -23.6594 -23.6594 -23.6549 -23.6544 -23.6542 -23.6542
   -23.6047 -23.6044 -23.6025 -23.6022 -23.6018 -23.6018 -23.5790 -23.5787
   -23.5697 -23.5696 -23.5694 -23.5694 -23.5693 -23.5691 -23.5688 -23.5688
   -23.5641 -23.5637 -23.5568 -23.5567 -23.5565 -23.5565 -23.5533 -23.5530
   -23.5439 -23.5439 -23.5437 -23.5436 -23.4887 -23.4884 -23.4882 -23.4881
   -23.4833 -23.4828 -23.4719 -23.4714 -23.4713 -23.4713 -23.4548 -23.4543
   -23.4409 -23.4405 -23.4261 -23.4257  -0.5418  -0.2277   0.2807   0.5628
     0.6327   0.6373   0.6382   0.8929   0.8940   1.1278   1.1435   1.2140
     1.2149   1.3418   1.3426   1.4006   1.4017   1.4085   1.5209   1.5606
     1.6735   1.6748   1.6807   1.6815   1.7843   1.8909   1.8920   1.9156
     1.9166   1.9415   1.9678   1.9686   2.0685   2.0696   2.1154   2.1164
     7.6364   8.0859   8.4406   8.4735   8.4740   8.5501   8.6864   8.6875
     8.7249   8.8165   8.8177   8.8185   8.8192   8.8441   8.8449   8.9919
     8.9924   9.1485   9.1852   9.1862   9.2830   9.3806   9.3816   9.3961
     9.4419   9.4428   9.4618   9.4621   9.7074   9.7088   9.9035   9.9048
     9.9879  10.0517  10.0523  10.1782  10.1913  10.1914  10.2888  10.3728
    10.3736  10.5387  10.5400  10.6632  10.6638  10.7028  10.7040  10.7048
    10.7054  10.7272  10.7662  10.7875  10.7883  11.1574  11.1972  11.3249
    11.3251  11.4142  11.4147  11.4478  11.4488  11.5882  11.5886  11.6663
    11.6775  11.6783  11.8014  11.9145  11.9153  12.0184  12.0583  12.1099
    12.1922  12.1926  12.3534  12.4326  12.4336  12.4659  12.4680  12.4711
    12.4995  12.5179  12.5185  12.5390  12.5402  12.6179  12.7615  12.7623
    12.7752  12.8337  12.8347  12.8513  12.8525  12.9371  12.9377  12.9627
    12.9641  13.1309  13.1637  13.1718  13.1722  13.2511  13.2716  13.3156
    13.4023  13.4850  13.5010  13.5468  13.5859  13.6100  13.6546  13.7234
    13.7239  13.7645  13.7658  13.8273  13.8279  13.9159  13.9514  13.9522
    14.2332  14.2333  14.5188  14.5189  14.5444  14.8079

          k = 0.2500 0.1443-0.1957 ( 82157 PWs)   bands (ev):

   -59.3221 -59.3220 -59.3164 -59.3162 -59.3144 -59.3142 -59.3141 -59.3141
   -59.3116 -59.3113 -59.3113 -59.3112 -59.3105 -59.3105 -59.3085 -59.3084
   -59.3084 -59.3080 -33.0341 -33.0340 -33.0320 -33.0318 -33.0316 -33.0315
   -33.0314 -33.0313 -33.0313 -33.0312 -33.0311 -33.0310 -33.0310 -33.0310
   -33.0309 -33.0309 -33.0308 -33.0308 -33.0308 -33.0307 -33.0306 -33.0306
   -33.0305 -33.0305 -33.0304 -33.0303 -33.0302 -33.0302 -33.0302 -33.0301
   -33.0300 -33.0299 -33.0299 -33.0298 -33.0294 -33.0294 -33.0291 -33.0290
   -33.0287 -33.0284 -33.0283 -33.0283 -33.0282 -33.0281 -33.0279 -33.0277
   -33.0276 -33.0276 -33.0274 -33.0274 -33.0271 -33.0271 -33.0270 -33.0270
   -33.0269 -33.0269 -33.0268 -33.0266 -33.0266 -33.0266 -33.0265 -33.0264
   -33.0264 -33.0264 -33.0262 -33.0262 -33.0261 -33.0259 -33.0258 -33.0258
   -33.0257 -33.0252 -33.0058 -33.0053 -33.0043 -33.0042 -33.0038 -33.0036
   -33.0036 -33.0035 -33.0034 -33.0034 -33.0033 -33.0033 -33.0032 -33.0031
   -33.0030 -33.0030 -33.0029 -33.0029 -33.0028 -33.0028 -33.0028 -33.0028
   -33.0027 -33.0026 -33.0026 -33.0026 -33.0025 -33.0025 -33.0024 -33.0023
   -33.0023 -33.0023 -33.0022 -33.0022 -33.0021 -33.0021 -33.0020 -33.0020
   -33.0020 -33.0019 -33.0019 -33.0018 -33.0018 -33.0017 -33.0017 -33.0016
   -33.0016 -33.0016 -33.0015 -33.0015 -33.0014 -33.0013 -33.0013 -33.0013
   -33.0011 -33.0011 -33.0010 -33.0010 -33.0009 -33.0009 -33.0008 -33.0007
   -33.0007 -33.0005 -33.0003 -33.0003 -33.0002 -33.0002 -33.0001 -33.0000
   -32.9999 -32.9998 -32.9911 -32.9902 -32.9900 -32.9894 -32.9891 -32.9890
   -32.9889 -32.9887 -32.9886 -32.9885 -32.9884 -32.9884 -32.9882 -32.9880
   -32.9880 -32.9879 -32.9879 -32.9878 -32.9875 -32.9874 -32.9874 -32.9871
   -32.9868 -32.9867 -32.9864 -32.9863 -32.9862 -32.9861 -32.9860 -32.9858
   -32.9857 -32.9857 -32.9855 -32.9854 -32.9851 -32.9850 -23.6847 -23.6843
   -23.6601 -23.6598 -23.6594 -23.6594 -23.6549 -23.6544 -23.6542 -23.6542
   -23.6047 -23.6044 -23.6025 -23.6022 -23.6018 -23.6018 -23.5790 -23.5787
   -23.5697 -23.5696 -23.5694 -23.5694 -23.5693 -23.5691 -23.5688 -23.5688
   -23.5641 -23.5637 -23.5568 -23.5567 -23.5565 -23.5565 -23.5533 -23.5530
   -23.5439 -23.5439 -23.5437 -23.5436 -23.4887 -23.4884 -23.4882 -23.4881
   -23.4833 -23.4828 -23.4719 -23.4714 -23.4713 -23.4713 -23.4548 -23.4543
   -23.4409 -23.4405 -23.4261 -23.4257  -0.5418  -0.2277   0.2807   0.5628
     0.6327   0.6372   0.6381   0.8929   0.8940   1.1278   1.1435   1.2140
     1.2149   1.3417   1.3426   1.4007   1.4017   1.4084   1.5209   1.5606
     1.6736   1.6748   1.6806   1.6815   1.7842   1.8908   1.8920   1.9156
     1.9166   1.9415   1.9678   1.9686   2.0684   2.0697   2.1154   2.1164
     7.6364   8.0858   8.4407   8.4737   8.4741   8.5501   8.6865   8.6873
     8.7248   8.8163   8.8177   8.8184   8.8185   8.8439   8.8452   8.9916
     8.9929   9.1485   9.1853   9.1859   9.2829   9.3808   9.3809   9.3959
     9.4430   9.4434   9.4617   9.4633   9.7077   9.7092   9.9023   9.9034
     9.9878  10.0517  10.0523  10.1782  10.1911  10.1916  10.2894  10.3728
    10.3734  10.5388  10.5398  10.6636  10.6639  10.7026  10.7034  10.7053
    10.7057  10.7272  10.7654  10.7876  10.7887  11.1577  11.1973  11.3240
    11.3249  11.4139  11.4146  11.4485  11.4489  11.5885  11.5889  11.6664
    11.6778  11.6782  11.8014  11.9141  11.9151  12.0184  12.0584  12.1104
    12.1923  12.1931  12.3533  12.4327  12.4333  12.4659  12.4674  12.4712
    12.4995  12.5182  12.5187  12.5390  12.5396  12.6173  12.7617  12.7629
    12.7748  12.8332  12.8338  12.8517  12.8525  12.9367  12.9376  12.9632
    12.9635  13.1308  13.1646  13.1718  13.1730  13.2512  13.2717  13.3156
    13.4023  13.4851  13.5015  13.5467  13.5851  13.6100  13.6552  13.7232
    13.7238  13.7647  13.7658  13.8269  13.8278  13.9159  13.9518  13.9523
    14.2332  14.2334  14.5186  14.5190  14.5440  14.8081

          k = 0.0000-0.2887 0.1957 ( 82157 PWs)   bands (ev):

   -59.3221 -59.3220 -59.3164 -59.3162 -59.3145 -59.3141 -59.3141 -59.3141
   -59.3116 -59.3114 -59.3113 -59.3112 -59.3105 -59.3105 -59.3085 -59.3084
   -59.3084 -59.3080 -33.0341 -33.0340 -33.0319 -33.0318 -33.0317 -33.0314
   -33.0314 -33.0314 -33.0313 -33.0312 -33.0311 -33.0311 -33.0310 -33.0309
   -33.0309 -33.0309 -33.0308 -33.0308 -33.0308 -33.0308 -33.0307 -33.0305
   -33.0305 -33.0305 -33.0304 -33.0303 -33.0302 -33.0302 -33.0302 -33.0301
   -33.0300 -33.0299 -33.0299 -33.0298 -33.0294 -33.0294 -33.0291 -33.0289
   -33.0288 -33.0284 -33.0283 -33.0282 -33.0281 -33.0281 -33.0278 -33.0277
   -33.0276 -33.0275 -33.0274 -33.0274 -33.0273 -33.0271 -33.0271 -33.0270
   -33.0270 -33.0269 -33.0268 -33.0266 -33.0266 -33.0266 -33.0265 -33.0264
   -33.0264 -33.0263 -33.0262 -33.0262 -33.0261 -33.0258 -33.0258 -33.0258
   -33.0257 -33.0252 -33.0058 -33.0053 -33.0043 -33.0042 -33.0038 -33.0037
   -33.0036 -33.0035 -33.0035 -33.0034 -33.0033 -33.0032 -33.0032 -33.0031
   -33.0030 -33.0030 -33.0029 -33.0029 -33.0028 -33.0028 -33.0027 -33.0027
   -33.0027 -33.0027 -33.0026 -33.0026 -33.0025 -33.0025 -33.0024 -33.0024
   -33.0023 -33.0022 -33.0022 -33.0022 -33.0022 -33.0021 -33.0021 -33.0020
   -33.0019 -33.0019 -33.0019 -33.0018 -33.0018 -33.0018 -33.0017 -33.0017
   -33.0016 -33.0016 -33.0015 -33.0015 -33.0014 -33.0013 -33.0013 -33.0012
   -33.0011 -33.0011 -33.0010 -33.0010 -33.0009 -33.0008 -33.0008 -33.0007
   -33.0007 -33.0005 -33.0003 -33.0003 -33.0002 -33.0001 -33.0001 -33.0000
   -32.9999 -32.9998 -32.9911 -32.9902 -32.9900 -32.9895 -32.9891 -32.9889
   -32.9889 -32.9887 -32.9885 -32.9885 -32.9884 -32.9884 -32.9881 -32.9880
   -32.9880 -32.9880 -32.9879 -32.9878 -32.9875 -32.9875 -32.9874 -32.9871
   -32.9868 -32.9867 -32.9864 -32.9863 -32.9862 -32.9862 -32.9860 -32.9858
   -32.9857 -32.9856 -32.9855 -32.9854 -32.9851 -32.9850 -23.6848 -23.6843
   -23.6601 -23.6597 -23.6594 -23.6594 -23.6549 -23.6544 -23.6542 -23.6542
   -23.6047 -23.6044 -23.6025 -23.6021 -23.6018 -23.6018 -23.5790 -23.5787
   -23.5697 -23.5696 -23.5694 -23.5694 -23.5693 -23.5692 -23.5688 -23.5688
   -23.5642 -23.5637 -23.5568 -23.5568 -23.5565 -23.5565 -23.5533 -23.5530
   -23.5439 -23.5439 -23.5437 -23.5436 -23.4887 -23.4884 -23.4882 -23.4881
   -23.4832 -23.4828 -23.4719 -23.4715 -23.4713 -23.4713 -23.4547 -23.4543
   -23.4409 -23.4405 -23.4261 -23.4257  -0.5418  -0.2277   0.2808   0.5628
     0.6326   0.6369   0.6384   0.8926   0.8942   1.1278   1.1435   1.2138
     1.2151   1.3416   1.3428   1.4005   1.4018   1.4086   1.5209   1.5606
     1.6736   1.6749   1.6806   1.6815   1.7842   1.8909   1.8921   1.9155
     1.9166   1.9413   1.9678   1.9686   2.0685   2.0697   2.1154   2.1164
     7.6364   8.0858   8.4404   8.4735   8.4740   8.5501   8.6862   8.6878
     8.7249   8.8163   8.8177   8.8186   8.8194   8.8437   8.8453   8.9916
     8.9929   9.1485   9.1852   9.1861   9.2832   9.3807   9.3816   9.3962
     9.4421   9.4428   9.4618   9.4622   9.7075   9.7088   9.9033   9.9049
     9.9882  10.0515  10.0524  10.1782  10.1910  10.1913  10.2885  10.3725
    10.3739  10.5381  10.5406  10.6627  10.6640  10.7024  10.7041  10.7049
    10.7054  10.7273  10.7662  10.7871  10.7886  11.1574  11.1972  11.3247
    11.3253  11.4140  11.4146  11.4472  11.4495  11.5880  11.5887  11.6666
    11.6768  11.6785  11.8017  11.9143  11.9154  12.0185  12.0585  12.1097
    12.1922  12.1930  12.3537  12.4329  12.4336  12.4657  12.4675  12.4715
    12.4994  12.5178  12.5191  12.5393  12.5397  12.6177  12.7613  12.7627
    12.7747  12.8336  12.8344  12.8511  12.8530  12.9370  12.9379  12.9628
    12.9638  13.1308  13.1638  13.1719  13.1723  13.2511  13.2714  13.3162
    13.4028  13.4848  13.5008  13.5466  13.5857  13.6101  13.6545  13.7235
    13.7244  13.7646  13.7660  13.8271  13.8279  13.9159  13.9514  13.9521
    14.2332  14.2334  14.5188  14.5190  14.5442  14.8079

          k = 0.0000 0.2887 0.1957 ( 82157 PWs)   bands (ev):

   -59.3221 -59.3220 -59.3164 -59.3162 -59.3145 -59.3141 -59.3141 -59.3141
   -59.3116 -59.3114 -59.3113 -59.3112 -59.3105 -59.3105 -59.3085 -59.3084
   -59.3084 -59.3080 -33.0341 -33.0340 -33.0319 -33.0318 -33.0317 -33.0314
   -33.0314 -33.0314 -33.0313 -33.0312 -33.0311 -33.0311 -33.0310 -33.0309
   -33.0309 -33.0309 -33.0308 -33.0308 -33.0308 -33.0308 -33.0307 -33.0306
   -33.0305 -33.0305 -33.0304 -33.0303 -33.0302 -33.0302 -33.0302 -33.0301
   -33.0300 -33.0299 -33.0299 -33.0298 -33.0294 -33.0294 -33.0291 -33.0290
   -33.0288 -33.0284 -33.0283 -33.0282 -33.0281 -33.0280 -33.0278 -33.0277
   -33.0276 -33.0275 -33.0274 -33.0274 -33.0273 -33.0271 -33.0271 -33.0270
   -33.0270 -33.0269 -33.0268 -33.0266 -33.0266 -33.0266 -33.0265 -33.0264
   -33.0264 -33.0263 -33.0262 -33.0262 -33.0261 -33.0258 -33.0258 -33.0258
   -33.0257 -33.0252 -33.0058 -33.0053 -33.0043 -33.0042 -33.0038 -33.0037
   -33.0036 -33.0035 -33.0034 -33.0034 -33.0033 -33.0032 -33.0032 -33.0031
   -33.0030 -33.0030 -33.0029 -33.0029 -33.0028 -33.0028 -33.0028 -33.0028
   -33.0027 -33.0026 -33.0026 -33.0026 -33.0025 -33.0025 -33.0024 -33.0024
   -33.0023 -33.0023 -33.0022 -33.0022 -33.0021 -33.0021 -33.0021 -33.0020
   -33.0020 -33.0019 -33.0019 -33.0018 -33.0018 -33.0018 -33.0017 -33.0016
   -33.0016 -33.0016 -33.0015 -33.0015 -33.0014 -33.0013 -33.0013 -33.0012
   -33.0011 -33.0011 -33.0010 -33.0010 -33.0009 -33.0009 -33.0008 -33.0007
   -33.0007 -33.0005 -33.0003 -33.0003 -33.0002 -33.0001 -33.0001 -33.0000
   -32.9999 -32.9998 -32.9911 -32.9902 -32.9900 -32.9895 -32.9891 -32.9890
   -32.9889 -32.9887 -32.9885 -32.9885 -32.9884 -32.9884 -32.9881 -32.9880
   -32.9880 -32.9880 -32.9879 -32.9878 -32.9875 -32.9874 -32.9874 -32.9871
   -32.9868 -32.9867 -32.9864 -32.9863 -32.9862 -32.9862 -32.9860 -32.9858
   -32.9857 -32.9856 -32.9855 -32.9854 -32.9851 -32.9850 -23.6848 -23.6843
   -23.6601 -23.6597 -23.6594 -23.6594 -23.6549 -23.6544 -23.6542 -23.6542
   -23.6047 -23.6044 -23.6025 -23.6021 -23.6018 -23.6018 -23.5790 -23.5787
   -23.5697 -23.5696 -23.5694 -23.5694 -23.5693 -23.5692 -23.5688 -23.5688
   -23.5642 -23.5637 -23.5568 -23.5568 -23.5565 -23.5565 -23.5533 -23.5530
   -23.5439 -23.5439 -23.5437 -23.5436 -23.4887 -23.4884 -23.4882 -23.4881
   -23.4832 -23.4828 -23.4719 -23.4715 -23.4713 -23.4713 -23.4547 -23.4543
   -23.4409 -23.4405 -23.4261 -23.4257  -0.5418  -0.2277   0.2808   0.5628
     0.6326   0.6369   0.6384   0.8926   0.8943   1.1278   1.1435   1.2137
     1.2151   1.3417   1.3428   1.4005   1.4017   1.4085   1.5209   1.5606
     1.6736   1.6749   1.6806   1.6816   1.7842   1.8909   1.8920   1.9155
     1.9166   1.9413   1.9678   1.9686   2.0684   2.0697   2.1154   2.1164
     7.6364   8.0857   8.4406   8.4735   8.4743   8.5502   8.6862   8.6877
     8.7249   8.8163   8.8178   8.8183   8.8187   8.8439   8.8454   8.9916
     8.9928   9.1485   9.1851   9.1862   9.2831   9.3808   9.3809   9.3958
     9.4427   9.4436   9.4619   9.4629   9.7077   9.7092   9.9024   9.9035
     9.9882  10.0514  10.0524  10.1780  10.1908  10.1919  10.2896  10.3724
    10.3734  10.5386  10.5401  10.6634  10.6638  10.7023  10.7036  10.7051
    10.7059  10.7274  10.7654  10.7872  10.7894  11.1575  11.1972  11.3237
    11.3255  11.4131  11.4148  11.4483  11.4489  11.5884  11.5889  11.6666
    11.6775  11.6783  11.8017  11.9138  11.9155  12.0186  12.0585  12.1098
    12.1923  12.1929  12.3537  12.4331  12.4338  12.4657  12.4674  12.4716
    12.4994  12.5179  12.5188  12.5389  12.5400  12.6174  12.7616  12.7627
    12.7747  12.8331  12.8343  12.8517  12.8526  12.9366  12.9382  12.9632
    12.9633  13.1307  13.1644  13.1720  13.1724  13.2511  13.2714  13.3162
    13.4028  13.4845  13.5011  13.5466  13.5849  13.6101  13.6550  13.7231
    13.7242  13.7651  13.7660  13.8268  13.8276  13.9159  13.9518  13.9522
    14.2333  14.2334  14.5187  14.5189  14.5441  14.8079

     highest occupied level (ev):    14.8081

!    total energy              =  -11463.64109500 Ry
     estimated scf accuracy    <          8.1E-11 Ry

     The total energy is the sum of the following terms:
     one-electron contribution =   -4882.74392346 Ry
     hartree contribution      =    2762.34547484 Ry
     xc contribution           =   -2343.53459927 Ry
     ewald contribution        =   -6997.67234561 Ry
     Dispersion Correction     =      -2.03570150 Ry

     convergence has been achieved in  24 iterations

     Forces acting on atoms (cartesian axes, Ry/au):

     atom    1 type  1   force =     0.00001695   -0.00000009   -0.00005439
     atom    2 type  1   force =     0.00000066   -0.00000962    0.00000678
     atom    3 type  1   force =     0.00000736   -0.00000344    0.00001433
     atom    4 type  1   force =     0.00000772    0.00000082    0.00000610
     atom    5 type  1   force =    -0.00000677   -0.00000050    0.00001521
     atom    6 type  1   force =    -0.00000166   -0.00000013   -0.00000539
     atom    7 type  1   force =     0.00000945    0.00000422    0.00000224
     atom    8 type  1   force =    -0.00000663   -0.00000008   -0.00000968
     atom    9 type  1   force =     0.00000155    0.00000794    0.00001887
     atom   10 type  1   force =     0.00228045   -0.00116955    0.00238665
     atom   11 type  1   force =     0.00002162    0.00000826    0.00004438
     atom   12 type  1   force =    -0.00008554   -0.00019713    0.00065008
     atom   13 type  1   force =     0.00025540    0.00135631    0.00150801
     atom   14 type  1   force =     0.00008190    0.00010306    0.00010011
     atom   15 type  1   force =    -0.00002969   -0.00003810    0.00004240
     atom   16 type  1   force =     0.00000820   -0.00000755    0.00004251
     atom   17 type  1   force =     0.00002280   -0.00000049    0.00004623
     atom   18 type  1   force =    -0.00009608   -0.00006387    0.00007103
     atom   19 type  2   force =    -0.00307472    0.00001137   -0.00519727
     atom   20 type  2   force =     0.00021902    0.00000352   -0.00021532
     atom   21 type  2   force =     0.00028461    0.00001667   -0.00026725
     atom   22 type  2   force =     0.00005230   -0.00016161   -0.00026147
     atom   23 type  2   force =     0.00003499    0.00009147   -0.00022179
     atom   24 type  2   force =    -0.00000416   -0.00000038   -0.00013604
     atom   25 type  2   force =     0.00001784   -0.00008882   -0.00023554
     atom   26 type  2   force =    -0.00000440    0.00000000   -0.00013584
     atom   27 type  2   force =     0.00006975    0.00013849   -0.00024789
     atom   28 type  2   force =    -0.00006806    0.00002810    0.00016767
     atom   29 type  2   force =     0.00000124   -0.00000424    0.00014031
     atom   30 type  2   force =     0.00011780    0.00007888    0.00031221
     atom   31 type  2   force =    -0.00001909   -0.00010723    0.00024010
     atom   32 type  2   force =    -0.00000623    0.00000060    0.00012484
     atom   33 type  2   force =     0.00000674   -0.00000783    0.00013549
     atom   34 type  2   force =     0.00000545    0.00000251    0.00014315
     atom   35 type  2   force =    -0.00000182    0.00000183    0.00013710
     atom   36 type  2   force =    -0.00000703    0.00000754    0.00013009
     atom   37 type  2   force =    -0.00000141    0.00000052   -0.00009560
     atom   38 type  2   force =    -0.00000394   -0.00000008   -0.00009900
     atom   39 type  2   force =    -0.00000025    0.00000004   -0.00009682
     atom   40 type  2   force =    -0.00000039   -0.00000058   -0.00009613
     atom   41 type  2   force =     0.00000076    0.00000213   -0.00010172
     atom   42 type  2   force =    -0.00000262    0.00000012   -0.00009948
     atom   43 type  2   force =    -0.00000104    0.00000180   -0.00009904
     atom   44 type  2   force =    -0.00000099   -0.00000164   -0.00009846
     atom   45 type  2   force =    -0.00000265   -0.00000187   -0.00010044
     atom   46 type  2   force =    -0.00006493   -0.00000021    0.00055031
     atom   47 type  2   force =     0.00007031    0.00006619    0.00015344
     atom   48 type  2   force =    -0.00002100    0.00001768    0.00008102
     atom   49 type  2   force =    -0.00008614    0.00001363    0.00012788
     atom   50 type  2   force =     0.00003256    0.00002327    0.00010659
     atom   51 type  2   force =     0.00001139   -0.00000026    0.00006728
     atom   52 type  2   force =    -0.00003980   -0.00011512    0.00016453
     atom   53 type  2   force =     0.00001095    0.00000005    0.00006679
     atom   54 type  2   force =    -0.00001272   -0.00000662    0.00007084

     Total force =     0.007409     Total SCF correction =     0.000061


     Computing stress (Cartesian axis) and pressure

          total   stress  (Ry/bohr**3)                   (kbar)     P=       64.66
   0.00051297  -0.00000032   0.00000099           75.46       -0.05        0.15
  -0.00000032   0.00051297  -0.00000001           -0.05       75.46       -0.00
   0.00000099  -0.00000001   0.00029268            0.15       -0.00       43.05


     Writing all to output data dir ./WSe.save/ :
     XML data file, charge density, pseudopotentials, collected wavefunctions
 
     init_run     :      9.58s CPU     11.40s WALL (       1 calls)
     electrons    :    700.59s CPU    855.45s WALL (       1 calls)
     forces       :      6.97s CPU      7.57s WALL (       1 calls)
     force_london :      0.04s CPU      0.04s WALL (       1 calls)
     stress       :    103.27s CPU    112.31s WALL (       1 calls)
     stres_london :      0.04s CPU      0.04s WALL (       1 calls)

     Called by init_run:
     wfcinit      :      8.99s CPU     10.71s WALL (       1 calls)
     potinit      :      0.05s CPU      0.08s WALL (       1 calls)
     hinit0       :      0.17s CPU      0.21s WALL (       1 calls)

     Called by electrons:
     c_bands      :    658.70s CPU    806.44s WALL (      25 calls)
     sum_band     :     39.86s CPU     46.22s WALL (      25 calls)
     v_of_rho     :      1.35s CPU      1.51s WALL (      25 calls)
     mix_rho      :      0.52s CPU      0.57s WALL (      25 calls)
     energy_londo :      0.05s CPU      0.05s WALL (       1 calls)

     Called by c_bands:
     init_us_2    :      8.40s CPU      8.48s WALL (     159 calls)
     init_us_2:cp :      8.39s CPU      8.47s WALL (     159 calls)
     cegterg      :    627.05s CPU    761.69s WALL (      75 calls)

     Called by *egterg:
     cdiaghg      :     43.11s CPU    109.07s WALL (     419 calls)
     h_psi        :    368.74s CPU    405.80s WALL (     425 calls)
     g_psi        :      1.42s CPU      1.46s WALL (     347 calls)

     Called by h_psi:
     h_psi:calbec :     93.91s CPU    101.33s WALL (     425 calls)
     vloc_psi     :    188.92s CPU    217.82s WALL (     425 calls)
     add_vuspsi   :     81.99s CPU     82.41s WALL (     425 calls)

     General routines
     calbec       :    101.05s CPU    112.24s WALL (     440 calls)
     fft          :      0.95s CPU      1.10s WALL (     275 calls)
     ffts         :      0.06s CPU      0.08s WALL (      25 calls)
     fftw         :    203.24s CPU    233.98s WALL (  194288 calls)
 
     Parallel routines
     fft_scatt_xy :     19.76s CPU     22.28s WALL (  194588 calls)
     fft_scatt_yz :    113.70s CPU    133.59s WALL (  194588 calls)
 
     PWSCF        :  13m42.29s CPU  16m42.23s WALL

 
   This run was terminated on:  17:44: 8   5Nov2024            

=------------------------------------------------------------------------------=
   JOB DONE.
=------------------------------------------------------------------------------=
