
     Program PWSCF v.7.3 starts on  5Nov2024 at 17:44:20 

     This program is part of the open-source Quantum ESPRESSO suite
     for quantum simulation of materials; please cite
         "P. Giannozzi et al., J. Phys.:Condens. Matter 21 395502 (2009);
         "P. Giannozzi et al., J. Phys.:Condens. Matter 29 465901 (2017);
         "P. Giannozzi et al., J. Chem. Phys. 152 154105 (2020);
          URL http://www.quantum-espresso.org", 
     in publications or presentations arising from this work. More details at
     http://www.quantum-espresso.org/quote

     Parallel version (MPI & OpenMP), running on     256 processor cores
     Number of MPI processes:               256
     Threads/MPI process:                     1

     MPI processes distributed on     1 nodes
     483333 MiB available memory on the printing compute node when the environment starts
 
     Waiting for input...
     Reading input from standard input

     Current dimensions of program PWSCF are:
     Max number of different atomic species (ntypx) = 10
     Max number of k-points (npk) =  40000
     Max angular momentum in pseudopotentials (lmaxx) =  4
 
     K-points division:     npool     =       4
     R & G space division:  proc/nbgrp/npool/nimage =      64
     Subspace diagonalization in iterative solution of the eigenvalue problem:
     one sub-group per band group will be used
     scalapack distributed-memory algorithm (size of sub-group:  4*  4 procs)

 
     Parallelization info
     --------------------
     sticks:   dense  smooth     PW     G-vecs:    dense   smooth      PW
     Min         115     115     30                10267    10267    1360
     Max         116     116     31                10276    10276    1368
     Sum        7399    7399   1921               657343   657343   87345
 
     Using Pencil Decomposition
 


     bravais-lattice index     =            0
     lattice parameter (alat)  =      18.3170  a.u.
     unit-cell volume          =    6800.4918 (a.u.)^3
     number of atoms/cell      =           54
     number of atomic types    =            2
     number of electrons       =       828.00
     number of Kohn-Sham states=          414
     kinetic-energy cutoff     =      80.0000  Ry
     charge density cutoff     =     320.0000  Ry
     scf convergence threshold =      1.0E-10
     mixing beta               =       0.5000
     number of iterations used =            8  plain     mixing
     Exchange-correlation= PBE
                           (   1   4   3   4   0   0   0)

     celldm(1)=  18.317010  celldm(2)=   0.000000  celldm(3)=   0.000000
     celldm(4)=   0.000000  celldm(5)=   0.000000  celldm(6)=   0.000000

     crystal axes: (cart. coord. in units of alat)
               a(1) = (   1.000000   0.000000   0.000000 )  
               a(2) = (  -0.500000   0.866025   0.000000 )  
               a(3) = (   0.000000   0.000000   1.277750 )  

     reciprocal axes: (cart. coord. in units 2 pi/alat)
               b(1) = (  1.000000  0.577350  0.000000 )  
               b(2) = (  0.000000  1.154701  0.000000 )  
               b(3) = (  0.000000  0.000000  0.782626 )  


     PseudoPot. # 1 for W  read from file:
     /users/rkarkee/pbe_pseudo/W.upf
     MD5 check sum: cb94e439a9e4ea809831d6e90c63864e
     Pseudo is Norm-conserving + core correction, Zval = 14.0
     Generated using ONCVPSP code by D. R. Hamann
     Using radial grid of 1396 points,  8 beta functions with: 
                l(1) =   0
                l(2) =   0
                l(3) =   1
                l(4) =   1
                l(5) =   2
                l(6) =   2
                l(7) =   3
                l(8) =   3

     PseudoPot. # 2 for Se read from file:
     /users/rkarkee/pbe_pseudo/Se.upf
     MD5 check sum: 3cc46b3642295b3f4fdae63b742ce36d
     Pseudo is Norm-conserving + core correction, Zval = 16.0
     Generated using ONCVPSP code by D. R. Hamann
     Using radial grid of 1214 points,  6 beta functions with: 
                l(1) =   0
                l(2) =   0
                l(3) =   1
                l(4) =   1
                l(5) =   2
                l(6) =   2

     atomic species   valence    mass     pseudopotential
     W                14.00   183.84000     W ( 1.00)
     Se               16.00    78.96000     Se( 1.00)

     No symmetry found



   Cartesian axes

     site n.     atom                  positions (alat units)
         1        W      tau(   1) = (  -0.0000000   0.1924501   0.9583127  )
         2        W      tau(   2) = (   0.3333333   0.1924501   0.9583127  )
         3        W      tau(   3) = (   0.6666667   0.1924501   0.9583127  )
         4        W      tau(   4) = (  -0.1666667   0.4811252   0.9583127  )
         5        W      tau(   5) = (   0.1666667   0.4811252   0.9583127  )
         6        W      tau(   6) = (   0.5000000   0.4811252   0.9583127  )
         7        W      tau(   7) = (  -0.3333333   0.7698004   0.9583127  )
         8        W      tau(   8) = (   0.0000000   0.7698004   0.9583127  )
         9        W      tau(   9) = (   0.3333333   0.7698004   0.9583127  )
        10        W      tau(  10) = (   0.1666667   0.0962250   0.3194376  )
        11        W      tau(  11) = (   0.5000000   0.0962250   0.3194376  )
        12        W      tau(  12) = (   0.8333333   0.0962250   0.3194376  )
        13        W      tau(  13) = (  -0.0000000   0.3849002   0.3194376  )
        14        W      tau(  14) = (   0.3333333   0.3849002   0.3194376  )
        15        W      tau(  15) = (   0.6666667   0.3849002   0.3194376  )
        16        W      tau(  16) = (  -0.1666667   0.6735753   0.3194376  )
        17        W      tau(  17) = (   0.1666667   0.6735753   0.3194376  )
        18        W      tau(  18) = (   0.5000000   0.6735753   0.3194376  )
        19        Se     tau(  19) = (  -0.0006729   0.1924501   0.1442918  )
        20        Se     tau(  20) = (   0.3333333   0.1924501   0.1451516  )
        21        Se     tau(  21) = (   0.6666667   0.1924501   0.1451516  )
        22        Se     tau(  22) = (  -0.1666667   0.4811252   0.1451516  )
        23        Se     tau(  23) = (   0.1666667   0.4811252   0.1451516  )
        24        Se     tau(  24) = (   0.5000000   0.4811252   0.1451516  )
        25        Se     tau(  25) = (  -0.3333333   0.7698004   0.1451516  )
        26        Se     tau(  26) = (   0.0000000   0.7698004   0.1451516  )
        27        Se     tau(  27) = (   0.3333333   0.7698004   0.1451516  )
        28        Se     tau(  28) = (   0.1666667   0.0962250   1.1325986  )
        29        Se     tau(  29) = (   0.5000000   0.0962250   1.1325986  )
        30        Se     tau(  30) = (   0.8333333   0.0962250   1.1325986  )
        31        Se     tau(  31) = (  -0.0000000   0.3849002   1.1325986  )
        32        Se     tau(  32) = (   0.3333333   0.3849002   1.1325986  )
        33        Se     tau(  33) = (   0.6666667   0.3849002   1.1325986  )
        34        Se     tau(  34) = (  -0.1666667   0.6735753   1.1325986  )
        35        Se     tau(  35) = (   0.1666667   0.6735753   1.1325986  )
        36        Se     tau(  36) = (   0.5000000   0.6735753   1.1325986  )
        37        Se     tau(  37) = (   0.1666667   0.0962250   0.7840267  )
        38        Se     tau(  38) = (   0.5000000   0.0962250   0.7840267  )
        39        Se     tau(  39) = (   0.8333333   0.0962250   0.7840267  )
        40        Se     tau(  40) = (  -0.0000000   0.3849002   0.7840267  )
        41        Se     tau(  41) = (   0.3333333   0.3849002   0.7840267  )
        42        Se     tau(  42) = (   0.6666667   0.3849002   0.7840267  )
        43        Se     tau(  43) = (  -0.1666667   0.6735753   0.7840267  )
        44        Se     tau(  44) = (   0.1666667   0.6735753   0.7840267  )
        45        Se     tau(  45) = (   0.5000000   0.6735753   0.7840267  )
        46        Se     tau(  46) = (  -0.0000000   0.1924501   0.4937235  )
        47        Se     tau(  47) = (   0.3333333   0.1924501   0.4937235  )
        48        Se     tau(  48) = (   0.6666667   0.1924501   0.4937235  )
        49        Se     tau(  49) = (  -0.1666667   0.4811252   0.4937235  )
        50        Se     tau(  50) = (   0.1666667   0.4811252   0.4937235  )
        51        Se     tau(  51) = (   0.5000000   0.4811252   0.4937235  )
        52        Se     tau(  52) = (  -0.3333333   0.7698004   0.4937235  )
        53        Se     tau(  53) = (   0.0000000   0.7698004   0.4937235  )
        54        Se     tau(  54) = (   0.3333333   0.7698004   0.4937235  )

     -------------------------------------------------
     Parameters for Dispersion (Grimme-D2) Correction:
     -------------------------------------------------
       atom      VdW radius       C_6     

        W          3.349       2818.308
        Se         3.347        438.498

     number of k points=    12
                       cart. coord. in units 2pi/alat
        k(    1) = (   0.2500000   0.4330127   0.1956564), wk =   0.1666667
        k(    2) = (   0.2500000  -0.1443376   0.1956564), wk =   0.1666667
        k(    3) = (  -0.2500000  -0.4330127   0.1956564), wk =   0.1666667
        k(    4) = (  -0.2500000   0.4330127  -0.1956564), wk =   0.1666667
        k(    5) = (   0.2500000  -0.4330127  -0.1956564), wk =   0.1666667
        k(    6) = (   0.5000000  -0.0000000   0.1956564), wk =   0.1666667
        k(    7) = (  -0.5000000   0.0000000   0.1956564), wk =   0.1666667
        k(    8) = (  -0.2500000   0.1443376   0.1956564), wk =   0.1666667
        k(    9) = (  -0.2500000  -0.1443376  -0.1956564), wk =   0.1666667
        k(   10) = (   0.2500000   0.1443376  -0.1956564), wk =   0.1666667
        k(   11) = (   0.0000000  -0.2886751   0.1956564), wk =   0.1666667
        k(   12) = (   0.0000000   0.2886751   0.1956564), wk =   0.1666667

     Dense  grid:   657343 G-vectors     FFT dimensions: ( 108, 108, 135)

     Estimated max dynamical RAM per process >     112.37 MB

     Estimated total dynamical RAM >      27.62 GB

     Initial potential from superposition of free atoms

     starting charge     827.9882, renormalised to     828.0000
     Starting wfcs are  504 randomized atomic wfcs

     total cpu time spent up to now is       12.4 secs

     Self-consistent Calculation

     iteration #  1     ecut=    80.00 Ry     beta= 0.50
     Davidson diagonalization with overlap
     ethr =  1.00E-02,  avg # of iterations =  2.0

     Threshold (ethr) on eigenvalues was too large:
     Diagonalizing with lowered threshold

     Davidson diagonalization with overlap
     ethr =  1.04E-04,  avg # of iterations =  5.0

     total cpu time spent up to now is       85.7 secs

     total energy              =  -11463.29229351 Ry
     estimated scf accuracy    <       1.40977936 Ry

     iteration #  2     ecut=    80.00 Ry     beta= 0.50
     Davidson diagonalization with overlap
     ethr =  1.70E-04,  avg # of iterations =  5.4

     total cpu time spent up to now is      123.2 secs

     total energy              =  -11463.30923365 Ry
     estimated scf accuracy    <       1.57453173 Ry

     iteration #  3     ecut=    80.00 Ry     beta= 0.50
     Davidson diagonalization with overlap
     ethr =  1.70E-04,  avg # of iterations =  6.0

     total cpu time spent up to now is      158.7 secs

     total energy              =  -11463.62230115 Ry
     estimated scf accuracy    <       0.13804423 Ry

     iteration #  4     ecut=    80.00 Ry     beta= 0.50
     Davidson diagonalization with overlap
     ethr =  1.67E-05,  avg # of iterations =  5.1

     total cpu time spent up to now is      190.4 secs

     total energy              =  -11463.62918396 Ry
     estimated scf accuracy    <       0.03158643 Ry

     iteration #  5     ecut=    80.00 Ry     beta= 0.50
     Davidson diagonalization with overlap
     ethr =  3.81E-06,  avg # of iterations =  6.0

     total cpu time spent up to now is      231.2 secs

     total energy              =  -11463.64080497 Ry
     estimated scf accuracy    <       0.03291785 Ry

     iteration #  6     ecut=    80.00 Ry     beta= 0.50
     Davidson diagonalization with overlap
     ethr =  3.81E-06,  avg # of iterations =  2.5

     total cpu time spent up to now is      258.1 secs

     total energy              =  -11463.63673234 Ry
     estimated scf accuracy    <       0.01298006 Ry

     iteration #  7     ecut=    80.00 Ry     beta= 0.50
     Davidson diagonalization with overlap
     ethr =  1.57E-06,  avg # of iterations =  6.0

     total cpu time spent up to now is      298.4 secs

     total energy              =  -11463.64164339 Ry
     estimated scf accuracy    <       0.01173400 Ry

     iteration #  8     ecut=    80.00 Ry     beta= 0.50
     Davidson diagonalization with overlap
     ethr =  1.42E-06,  avg # of iterations =  1.4

     total cpu time spent up to now is      322.3 secs

     total energy              =  -11463.64004384 Ry
     estimated scf accuracy    <       0.00769882 Ry

     iteration #  9     ecut=    80.00 Ry     beta= 0.50
     Davidson diagonalization with overlap
     ethr =  9.30E-07,  avg # of iterations =  5.0

     total cpu time spent up to now is      353.8 secs

     total energy              =  -11463.64093540 Ry
     estimated scf accuracy    <       0.00027386 Ry

     iteration # 10     ecut=    80.00 Ry     beta= 0.50
     Davidson diagonalization with overlap
     ethr =  3.31E-08,  avg # of iterations =  6.3

     total cpu time spent up to now is      396.6 secs

     total energy              =  -11463.64108434 Ry
     estimated scf accuracy    <       0.00016081 Ry

     iteration # 11     ecut=    80.00 Ry     beta= 0.50
     Davidson diagonalization with overlap
     ethr =  1.94E-08,  avg # of iterations =  3.0

     total cpu time spent up to now is      425.9 secs

     total energy              =  -11463.64109620 Ry
     estimated scf accuracy    <       0.00002018 Ry

     iteration # 12     ecut=    80.00 Ry     beta= 0.50
     Davidson diagonalization with overlap
     ethr =  2.44E-09,  avg # of iterations =  6.0

     total cpu time spent up to now is      463.8 secs

     total energy              =  -11463.64109988 Ry
     estimated scf accuracy    <       0.00000501 Ry

     iteration # 13     ecut=    80.00 Ry     beta= 0.50
     Davidson diagonalization with overlap
     ethr =  6.05E-10,  avg # of iterations =  6.5

     total cpu time spent up to now is      497.4 secs

     total energy              =  -11463.64110033 Ry
     estimated scf accuracy    <       0.00000133 Ry

     iteration # 14     ecut=    80.00 Ry     beta= 0.50
     Davidson diagonalization with overlap
     ethr =  1.60E-10,  avg # of iterations =  7.0

     total cpu time spent up to now is      538.3 secs

     total energy              =  -11463.64110017 Ry
     estimated scf accuracy    <       0.00000305 Ry

     iteration # 15     ecut=    80.00 Ry     beta= 0.50
     Davidson diagonalization with overlap
     ethr =  1.60E-10,  avg # of iterations =  6.0

     total cpu time spent up to now is      572.6 secs

     total energy              =  -11463.64110039 Ry
     estimated scf accuracy    <       0.00000027 Ry

     iteration # 16     ecut=    80.00 Ry     beta= 0.50
     Davidson diagonalization with overlap
     ethr =  3.27E-11,  avg # of iterations =  6.0

     total cpu time spent up to now is      614.6 secs

     total energy              =  -11463.64110047 Ry
     estimated scf accuracy    <       0.00000037 Ry

     iteration # 17     ecut=    80.00 Ry     beta= 0.50
     Davidson diagonalization with overlap
     ethr =  3.27E-11,  avg # of iterations =  1.9

     total cpu time spent up to now is      639.7 secs

     total energy              =  -11463.64110042 Ry
     estimated scf accuracy    <       0.00000025 Ry

     iteration # 18     ecut=    80.00 Ry     beta= 0.50
     Davidson diagonalization with overlap
     ethr =  3.02E-11,  avg # of iterations =  4.8

     total cpu time spent up to now is      670.4 secs

     total energy              =  -11463.64110044 Ry
     estimated scf accuracy    <       0.00000002 Ry

     iteration # 19     ecut=    80.00 Ry     beta= 0.50
     Davidson diagonalization with overlap
     ethr =  2.97E-12,  avg # of iterations =  6.3

     total cpu time spent up to now is      712.9 secs

     total energy              =  -11463.64110045 Ry
     estimated scf accuracy    <       0.00000003 Ry

     iteration # 20     ecut=    80.00 Ry     beta= 0.50
     Davidson diagonalization with overlap
     ethr =  2.97E-12,  avg # of iterations =  6.0

     total cpu time spent up to now is      745.6 secs

     total energy              =  -11463.64110045 Ry
     estimated scf accuracy    <          7.7E-09 Ry

     iteration # 21     ecut=    80.00 Ry     beta= 0.50
     Davidson diagonalization with overlap
     ethr =  9.33E-13,  avg # of iterations =  5.6

     total cpu time spent up to now is      779.3 secs

     total energy              =  -11463.64110045 Ry
     estimated scf accuracy    <          1.6E-09 Ry

     iteration # 22     ecut=    80.00 Ry     beta= 0.50
     Davidson diagonalization with overlap
     ethr =  1.96E-13,  avg # of iterations =  7.0

     total cpu time spent up to now is      816.9 secs

     total energy              =  -11463.64110045 Ry
     estimated scf accuracy    <          6.1E-10 Ry

     iteration # 23     ecut=    80.00 Ry     beta= 0.50
     Davidson diagonalization with overlap
     ethr =  1.00E-13,  avg # of iterations =  6.4

     total cpu time spent up to now is      848.5 secs

     total energy              =  -11463.64110045 Ry
     estimated scf accuracy    <          1.4E-10 Ry

     iteration # 24     ecut=    80.00 Ry     beta= 0.50
     Davidson diagonalization with overlap
     ethr =  1.00E-13,  avg # of iterations =  1.5

     total cpu time spent up to now is      872.2 secs

     End of self-consistent calculation

          k = 0.2500 0.4330 0.1957 ( 82195 PWs)   bands (ev):

   -59.3207 -59.3207 -59.3180 -59.3178 -59.3178 -59.3175 -59.3124 -59.3121
   -59.3121 -59.3117 -59.3102 -59.3100 -59.3100 -59.3100 -59.3099 -59.3093
   -59.3092 -59.3089 -33.0318 -33.0316 -33.0314 -33.0313 -33.0313 -33.0312
   -33.0311 -33.0311 -33.0310 -33.0310 -33.0310 -33.0309 -33.0309 -33.0308
   -33.0307 -33.0306 -33.0306 -33.0305 -33.0305 -33.0304 -33.0304 -33.0304
   -33.0304 -33.0303 -33.0302 -33.0301 -33.0301 -33.0300 -33.0299 -33.0298
   -33.0297 -33.0296 -33.0296 -33.0296 -33.0295 -33.0293 -33.0292 -33.0292
   -33.0292 -33.0291 -33.0289 -33.0287 -33.0287 -33.0286 -33.0284 -33.0283
   -33.0278 -33.0276 -33.0274 -33.0273 -33.0271 -33.0270 -33.0270 -33.0269
   -33.0268 -33.0266 -33.0265 -33.0264 -33.0264 -33.0262 -33.0262 -33.0261
   -33.0260 -33.0260 -33.0258 -33.0257 -33.0257 -33.0255 -33.0253 -33.0252
   -33.0235 -33.0234 -33.0041 -33.0041 -33.0039 -33.0038 -33.0037 -33.0036
   -33.0036 -33.0036 -33.0035 -33.0034 -33.0033 -33.0032 -33.0031 -33.0031
   -33.0031 -33.0030 -33.0029 -33.0029 -33.0027 -33.0027 -33.0027 -33.0026
   -33.0026 -33.0025 -33.0025 -33.0024 -33.0024 -33.0024 -33.0023 -33.0022
   -33.0022 -33.0022 -33.0021 -33.0021 -33.0021 -33.0020 -33.0019 -33.0019
   -33.0019 -33.0018 -33.0018 -33.0017 -33.0017 -33.0016 -33.0016 -33.0016
   -33.0015 -33.0014 -33.0014 -33.0013 -33.0013 -33.0012 -33.0012 -33.0011
   -33.0011 -33.0010 -33.0010 -33.0008 -33.0007 -33.0007 -33.0007 -33.0006
   -33.0005 -33.0004 -33.0004 -33.0003 -33.0002 -33.0001 -33.0000 -32.9999
   -32.9987 -32.9982 -32.9903 -32.9898 -32.9897 -32.9896 -32.9893 -32.9890
   -32.9888 -32.9885 -32.9884 -32.9883 -32.9882 -32.9881 -32.9881 -32.9881
   -32.9880 -32.9878 -32.9877 -32.9876 -32.9876 -32.9875 -32.9874 -32.9872
   -32.9869 -32.9866 -32.9864 -32.9863 -32.9860 -32.9858 -32.9858 -32.9857
   -32.9857 -32.9856 -32.9854 -32.9852 -32.9851 -32.9842 -23.6928 -23.6928
   -23.6925 -23.6922 -23.6801 -23.6795 -23.6512 -23.6508 -23.6339 -23.6339
   -23.6335 -23.6333 -23.5974 -23.5971 -23.5846 -23.5845 -23.5845 -23.5840
   -23.5589 -23.5589 -23.5589 -23.5584 -23.5496 -23.5495 -23.5495 -23.5494
   -23.5491 -23.5488 -23.5460 -23.5457 -23.5410 -23.5405 -23.5349 -23.5349
   -23.5345 -23.5343 -23.5316 -23.5312 -23.5034 -23.5034 -23.5031 -23.5029
   -23.4983 -23.4982 -23.4978 -23.4977 -23.4758 -23.4754 -23.4522 -23.4522
   -23.4518 -23.4517 -23.4353 -23.4349  -0.3217  -0.0126   0.0900   0.0912
     0.3829   0.3844   0.7648   1.0132   1.0140   1.1036   1.1047   1.2475
     1.3086   1.3098   1.4371   1.4381   1.5798   1.6232   1.6242   1.6318
     1.6332   1.7052   1.7409   1.7419   1.8178   1.8650   1.8662   1.8899
     1.9039   1.9058   1.9072   2.0056   2.0062   2.0105   2.0360   2.0710
     7.9046   7.9742   7.9751   8.2100   8.3187   8.3197   8.3770   8.3778
     8.5126   8.7981   8.8929   8.9010   8.9021   8.9653   9.0527   9.0532
     9.0546   9.0917   9.1556   9.1560   9.1787   9.1794   9.3259   9.3388
     9.3397   9.5257   9.6396   9.6404   9.7721   9.7735   9.9955   9.9965
    10.0585  10.1579  10.1593  10.2037  10.2257  10.4657  10.4666  10.5763
    10.5887  10.5888  10.6728  10.6737  10.7084  10.7100  10.8567  10.8748
    10.8759  11.0200  11.0205  11.0591  11.1382  11.1492  11.2628  11.4298
    11.4306  11.4506  11.4589  11.5115  11.5338  11.5347  11.5412  11.5422
    11.6101  11.6102  11.6200  11.6886  12.0226  12.0236  12.0798  12.1034
    12.1048  12.1449  12.1600  12.1612  12.1816  12.1833  12.3034  12.3042
    12.3495  12.4027  12.4457  12.4466  12.5830  12.6485  12.6767  12.7965
    12.7974  12.7982  12.7987  12.8044  12.8339  12.8861  12.8868  12.9333
    12.9339  12.9390  13.0142  13.0151  13.0350  13.0364  13.2577  13.2598
    13.4438  13.4915  13.4927  13.5465  13.8755  13.8765  13.8789  13.8794
    13.8846  13.8855  13.8864  13.8867  13.9934  13.9939  14.0050  14.0645
    14.1591  14.1600  14.2026  14.3293  14.3842  14.4175

          k = 0.2500-0.1443 0.1957 ( 82157 PWs)   bands (ev):

   -59.3223 -59.3223 -59.3167 -59.3166 -59.3145 -59.3145 -59.3145 -59.3143
   -59.3119 -59.3117 -59.3116 -59.3113 -59.3109 -59.3106 -59.3088 -59.3087
   -59.3086 -59.3084 -33.0320 -33.0317 -33.0316 -33.0315 -33.0315 -33.0314
   -33.0313 -33.0313 -33.0313 -33.0311 -33.0311 -33.0310 -33.0309 -33.0309
   -33.0308 -33.0308 -33.0307 -33.0307 -33.0306 -33.0306 -33.0305 -33.0305
   -33.0305 -33.0304 -33.0304 -33.0303 -33.0302 -33.0301 -33.0300 -33.0300
   -33.0299 -33.0299 -33.0297 -33.0295 -33.0291 -33.0290 -33.0288 -33.0287
   -33.0286 -33.0282 -33.0281 -33.0280 -33.0280 -33.0279 -33.0279 -33.0275
   -33.0274 -33.0274 -33.0273 -33.0271 -33.0271 -33.0271 -33.0269 -33.0269
   -33.0268 -33.0267 -33.0267 -33.0266 -33.0265 -33.0264 -33.0264 -33.0264
   -33.0263 -33.0262 -33.0262 -33.0260 -33.0259 -33.0258 -33.0256 -33.0254
   -33.0237 -33.0235 -33.0044 -33.0043 -33.0039 -33.0037 -33.0036 -33.0035
   -33.0035 -33.0034 -33.0033 -33.0033 -33.0032 -33.0032 -33.0030 -33.0030
   -33.0030 -33.0029 -33.0029 -33.0028 -33.0028 -33.0027 -33.0027 -33.0027
   -33.0026 -33.0026 -33.0025 -33.0025 -33.0024 -33.0024 -33.0023 -33.0023
   -33.0023 -33.0022 -33.0021 -33.0021 -33.0020 -33.0020 -33.0020 -33.0020
   -33.0019 -33.0019 -33.0019 -33.0018 -33.0018 -33.0017 -33.0017 -33.0016
   -33.0015 -33.0015 -33.0014 -33.0014 -33.0013 -33.0013 -33.0012 -33.0011
   -33.0010 -33.0010 -33.0009 -33.0009 -33.0008 -33.0008 -33.0007 -33.0006
   -33.0004 -33.0004 -33.0002 -33.0002 -33.0001 -33.0000 -32.9999 -32.9998
   -32.9987 -32.9982 -32.9907 -32.9900 -32.9895 -32.9892 -32.9890 -32.9890
   -32.9887 -32.9887 -32.9885 -32.9885 -32.9884 -32.9883 -32.9881 -32.9880
   -32.9880 -32.9879 -32.9878 -32.9876 -32.9875 -32.9873 -32.9870 -32.9869
   -32.9868 -32.9866 -32.9863 -32.9862 -32.9862 -32.9861 -32.9860 -32.9857
   -32.9856 -32.9856 -32.9855 -32.9852 -32.9851 -32.9842 -23.6847 -23.6841
   -23.6598 -23.6598 -23.6596 -23.6592 -23.6546 -23.6546 -23.6543 -23.6539
   -23.6047 -23.6044 -23.6022 -23.6022 -23.6020 -23.6016 -23.5791 -23.5789
   -23.5697 -23.5697 -23.5695 -23.5694 -23.5692 -23.5692 -23.5689 -23.5687
   -23.5641 -23.5636 -23.5569 -23.5569 -23.5566 -23.5566 -23.5534 -23.5531
   -23.5440 -23.5440 -23.5438 -23.5437 -23.4885 -23.4885 -23.4882 -23.4880
   -23.4832 -23.4828 -23.4717 -23.4717 -23.4713 -23.4712 -23.4547 -23.4543
   -23.4409 -23.4405 -23.4261 -23.4257  -0.5408  -0.2262   0.2816   0.5640
     0.6326   0.6380   0.6392   0.8940   0.8952   1.1282   1.1440   1.2148
     1.2159   1.3425   1.3432   1.4016   1.4026   1.4094   1.5217   1.5615
     1.6748   1.6754   1.6815   1.6826   1.7854   1.8920   1.8929   1.9166
     1.9178   1.9425   1.9686   1.9696   2.0697   2.0709   2.1164   2.1175
     7.6366   8.0868   8.4421   8.4747   8.4751   8.5504   8.6875   8.6883
     8.7258   8.8176   8.8183   8.8202   8.8205   8.8450   8.8458   8.9932
     8.9938   9.1487   9.1865   9.1878   9.2832   9.3812   9.3815   9.3971
     9.4435   9.4440   9.4621   9.4624   9.7083   9.7098   9.9043   9.9052
     9.9885  10.0526  10.0532  10.1798  10.1916  10.1922  10.2898  10.3731
    10.3746  10.5393  10.5403  10.6646  10.6650  10.7042  10.7046  10.7063
    10.7077  10.7288  10.7675  10.7876  10.7888  11.1589  11.1966  11.3252
    11.3264  11.4149  11.4166  11.4488  11.4499  11.5893  11.5896  11.6683
    11.6791  11.6799  11.8036  11.9156  11.9174  12.0208  12.0609  12.1095
    12.1923  12.1926  12.3552  12.4320  12.4330  12.4668  12.4684  12.4732
    12.5021  12.5184  12.5189  12.5389  12.5395  12.6173  12.7625  12.7629
    12.7756  12.8340  12.8350  12.8524  12.8529  12.9374  12.9383  12.9641
    12.9643  13.1329  13.1636  13.1718  13.1724  13.2536  13.2718  13.3175
    13.4043  13.4860  13.5025  13.5471  13.5858  13.6110  13.6547  13.7242
    13.7248  13.7658  13.7664  13.8281  13.8286  13.9176  13.9528  13.9530
    14.2334  14.2336  14.5194  14.5196  14.5439  14.8074

          k =-0.2500-0.4330 0.1957 ( 82195 PWs)   bands (ev):

   -59.3207 -59.3207 -59.3180 -59.3178 -59.3178 -59.3175 -59.3124 -59.3121
   -59.3121 -59.3117 -59.3102 -59.3100 -59.3100 -59.3100 -59.3099 -59.3093
   -59.3092 -59.3089 -33.0318 -33.0316 -33.0314 -33.0313 -33.0313 -33.0312
   -33.0311 -33.0311 -33.0310 -33.0310 -33.0310 -33.0309 -33.0309 -33.0308
   -33.0307 -33.0306 -33.0306 -33.0305 -33.0305 -33.0304 -33.0304 -33.0304
   -33.0303 -33.0303 -33.0303 -33.0301 -33.0301 -33.0300 -33.0299 -33.0298
   -33.0297 -33.0296 -33.0296 -33.0296 -33.0295 -33.0293 -33.0292 -33.0292
   -33.0292 -33.0291 -33.0289 -33.0287 -33.0287 -33.0286 -33.0284 -33.0283
   -33.0278 -33.0276 -33.0274 -33.0273 -33.0271 -33.0270 -33.0270 -33.0269
   -33.0268 -33.0266 -33.0265 -33.0264 -33.0264 -33.0262 -33.0262 -33.0261
   -33.0260 -33.0260 -33.0258 -33.0257 -33.0257 -33.0255 -33.0253 -33.0252
   -33.0235 -33.0234 -33.0041 -33.0041 -33.0039 -33.0038 -33.0038 -33.0036
   -33.0036 -33.0035 -33.0035 -33.0034 -33.0033 -33.0032 -33.0032 -33.0031
   -33.0031 -33.0030 -33.0029 -33.0028 -33.0028 -33.0027 -33.0027 -33.0026
   -33.0026 -33.0025 -33.0025 -33.0024 -33.0024 -33.0024 -33.0023 -33.0022
   -33.0022 -33.0022 -33.0021 -33.0021 -33.0021 -33.0020 -33.0019 -33.0019
   -33.0019 -33.0018 -33.0018 -33.0018 -33.0017 -33.0016 -33.0016 -33.0015
   -33.0015 -33.0014 -33.0014 -33.0013 -33.0013 -33.0012 -33.0012 -33.0011
   -33.0011 -33.0010 -33.0009 -33.0008 -33.0008 -33.0007 -33.0007 -33.0006
   -33.0005 -33.0004 -33.0004 -33.0003 -33.0002 -33.0001 -33.0000 -32.9999
   -32.9987 -32.9982 -32.9903 -32.9899 -32.9897 -32.9896 -32.9893 -32.9890
   -32.9888 -32.9885 -32.9884 -32.9883 -32.9882 -32.9881 -32.9881 -32.9881
   -32.9880 -32.9878 -32.9877 -32.9876 -32.9876 -32.9875 -32.9874 -32.9872
   -32.9869 -32.9866 -32.9864 -32.9863 -32.9860 -32.9858 -32.9858 -32.9858
   -32.9857 -32.9856 -32.9854 -32.9852 -32.9851 -32.9842 -23.6928 -23.6928
   -23.6925 -23.6922 -23.6801 -23.6795 -23.6512 -23.6508 -23.6339 -23.6339
   -23.6335 -23.6333 -23.5974 -23.5971 -23.5846 -23.5845 -23.5845 -23.5840
   -23.5589 -23.5589 -23.5589 -23.5584 -23.5496 -23.5495 -23.5495 -23.5494
   -23.5491 -23.5488 -23.5460 -23.5457 -23.5410 -23.5405 -23.5349 -23.5349
   -23.5345 -23.5343 -23.5316 -23.5312 -23.5034 -23.5034 -23.5031 -23.5029
   -23.4983 -23.4982 -23.4978 -23.4977 -23.4758 -23.4754 -23.4522 -23.4522
   -23.4518 -23.4517 -23.4353 -23.4349  -0.3217  -0.0126   0.0900   0.0912
     0.3830   0.3844   0.7648   1.0132   1.0141   1.1036   1.1047   1.2475
     1.3086   1.3098   1.4372   1.4381   1.5798   1.6232   1.6242   1.6319
     1.6332   1.7052   1.7409   1.7419   1.8178   1.8650   1.8661   1.8899
     1.9038   1.9058   1.9071   2.0055   2.0062   2.0105   2.0360   2.0710
     7.9046   7.9742   7.9751   8.2100   8.3187   8.3197   8.3770   8.3779
     8.5126   8.7982   8.8929   8.9010   8.9021   8.9653   9.0528   9.0533
     9.0544   9.0917   9.1555   9.1561   9.1787   9.1794   9.3258   9.3388
     9.3396   9.5258   9.6396   9.6405   9.7721   9.7735   9.9954   9.9966
    10.0586  10.1578  10.1593  10.2035  10.2259  10.4659  10.4667  10.5760
    10.5887  10.5888  10.6730  10.6738  10.7086  10.7100  10.8569  10.8749
    10.8758  11.0200  11.0203  11.0590  11.1382  11.1495  11.2626  11.4299
    11.4303  11.4504  11.4589  11.5115  11.5337  11.5347  11.5412  11.5423
    11.6099  11.6102  11.6202  11.6885  12.0227  12.0237  12.0800  12.1034
    12.1049  12.1447  12.1602  12.1612  12.1816  12.1831  12.3034  12.3041
    12.3497  12.4024  12.4457  12.4465  12.5830  12.6485  12.6766  12.7968
    12.7978  12.7981  12.7984  12.8047  12.8339  12.8862  12.8869  12.9332
    12.9339  12.9389  13.0143  13.0149  13.0349  13.0364  13.2578  13.2599
    13.4438  13.4914  13.4928  13.5462  13.8752  13.8764  13.8789  13.8793
    13.8847  13.8855  13.8864  13.8868  13.9934  13.9940  14.0051  14.0644
    14.1591  14.1600  14.2025  14.3296  14.3842  14.4174

          k =-0.2500 0.4330-0.1957 ( 82195 PWs)   bands (ev):

   -59.3207 -59.3207 -59.3181 -59.3178 -59.3178 -59.3174 -59.3125 -59.3121
   -59.3121 -59.3116 -59.3105 -59.3100 -59.3100 -59.3100 -59.3096 -59.3094
   -59.3092 -59.3089 -33.0318 -33.0317 -33.0314 -33.0313 -33.0312 -33.0312
   -33.0311 -33.0311 -33.0310 -33.0310 -33.0310 -33.0309 -33.0309 -33.0308
   -33.0308 -33.0306 -33.0306 -33.0305 -33.0305 -33.0304 -33.0304 -33.0304
   -33.0304 -33.0303 -33.0302 -33.0301 -33.0301 -33.0300 -33.0300 -33.0298
   -33.0297 -33.0296 -33.0296 -33.0296 -33.0295 -33.0293 -33.0292 -33.0292
   -33.0292 -33.0291 -33.0289 -33.0287 -33.0287 -33.0286 -33.0284 -33.0283
   -33.0279 -33.0275 -33.0274 -33.0273 -33.0271 -33.0270 -33.0270 -33.0269
   -33.0267 -33.0266 -33.0264 -33.0264 -33.0264 -33.0262 -33.0262 -33.0261
   -33.0261 -33.0260 -33.0257 -33.0257 -33.0257 -33.0255 -33.0253 -33.0252
   -33.0236 -33.0234 -33.0041 -33.0041 -33.0039 -33.0038 -33.0037 -33.0036
   -33.0036 -33.0036 -33.0035 -33.0034 -33.0033 -33.0032 -33.0031 -33.0031
   -33.0030 -33.0030 -33.0029 -33.0028 -33.0028 -33.0027 -33.0026 -33.0026
   -33.0026 -33.0026 -33.0025 -33.0025 -33.0024 -33.0024 -33.0023 -33.0023
   -33.0022 -33.0022 -33.0021 -33.0021 -33.0021 -33.0020 -33.0019 -33.0019
   -33.0019 -33.0018 -33.0018 -33.0017 -33.0017 -33.0016 -33.0016 -33.0015
   -33.0015 -33.0015 -33.0014 -33.0013 -33.0013 -33.0012 -33.0012 -33.0011
   -33.0011 -33.0010 -33.0010 -33.0009 -33.0008 -33.0007 -33.0007 -33.0006
   -33.0005 -33.0004 -33.0004 -33.0003 -33.0002 -33.0001 -33.0000 -32.9999
   -32.9987 -32.9982 -32.9904 -32.9898 -32.9897 -32.9897 -32.9893 -32.9890
   -32.9888 -32.9886 -32.9884 -32.9883 -32.9882 -32.9881 -32.9881 -32.9880
   -32.9880 -32.9879 -32.9877 -32.9876 -32.9876 -32.9875 -32.9874 -32.9871
   -32.9868 -32.9866 -32.9864 -32.9863 -32.9859 -32.9859 -32.9858 -32.9857
   -32.9857 -32.9856 -32.9854 -32.9852 -32.9851 -32.9842 -23.6928 -23.6928
   -23.6925 -23.6922 -23.6801 -23.6797 -23.6512 -23.6506 -23.6339 -23.6339
   -23.6338 -23.6332 -23.5974 -23.5971 -23.5846 -23.5845 -23.5844 -23.5841
   -23.5589 -23.5589 -23.5588 -23.5584 -23.5495 -23.5495 -23.5494 -23.5494
   -23.5493 -23.5488 -23.5460 -23.5457 -23.5410 -23.5406 -23.5349 -23.5349
   -23.5346 -23.5342 -23.5316 -23.5311 -23.5034 -23.5034 -23.5030 -23.5029
   -23.4983 -23.4983 -23.4981 -23.4976 -23.4758 -23.4753 -23.4522 -23.4522
   -23.4519 -23.4516 -23.4353 -23.4350  -0.3217  -0.0126   0.0899   0.0912
     0.3829   0.3844   0.7648   1.0132   1.0141   1.1036   1.1049   1.2476
     1.3086   1.3099   1.4372   1.4381   1.5796   1.6232   1.6241   1.6319
     1.6327   1.7051   1.7410   1.7417   1.8181   1.8650   1.8658   1.8900
     1.9039   1.9058   1.9073   2.0055   2.0066   2.0104   2.0362   2.0706
     7.9046   7.9745   7.9750   8.2098   8.3191   8.3197   8.3770   8.3778
     8.5122   8.7982   8.8931   8.9010   8.9020   8.9653   9.0527   9.0533
     9.0547   9.0918   9.1554   9.1558   9.1785   9.1793   9.3255   9.3388
     9.3397   9.5255   9.6396   9.6405   9.7721   9.7735   9.9953   9.9960
    10.0591  10.1581  10.1599  10.2037  10.2254  10.4657  10.4673  10.5766
    10.5886  10.5890  10.6728  10.6739  10.7088  10.7094  10.8571  10.8748
    10.8759  11.0196  11.0208  11.0594  11.1383  11.1493  11.2629  11.4299
    11.4308  11.4506  11.4587  11.5112  11.5337  11.5342  11.5412  11.5423
    11.6095  11.6112  11.6197  11.6886  12.0229  12.0232  12.0798  12.1032
    12.1051  12.1441  12.1606  12.1613  12.1819  12.1827  12.3030  12.3044
    12.3503  12.4030  12.4460  12.4465  12.5828  12.6487  12.6769  12.7963
    12.7970  12.7982  12.7986  12.8044  12.8330  12.8862  12.8867  12.9334
    12.9339  12.9382  13.0140  13.0151  13.0353  13.0363  13.2579  13.2594
    13.4442  13.4918  13.4925  13.5466  13.8757  13.8761  13.8787  13.8794
    13.8849  13.8856  13.8859  13.8872  13.9931  13.9939  14.0050  14.0642
    14.1591  14.1601  14.2026  14.3294  14.3842  14.4179

          k = 0.2500-0.4330-0.1957 ( 82195 PWs)   bands (ev):

   -59.3207 -59.3207 -59.3181 -59.3178 -59.3178 -59.3174 -59.3125 -59.3121
   -59.3121 -59.3116 -59.3105 -59.3100 -59.3100 -59.3100 -59.3096 -59.3094
   -59.3092 -59.3089 -33.0318 -33.0317 -33.0314 -33.0313 -33.0313 -33.0312
   -33.0311 -33.0311 -33.0310 -33.0310 -33.0309 -33.0309 -33.0309 -33.0308
   -33.0308 -33.0306 -33.0306 -33.0305 -33.0305 -33.0304 -33.0304 -33.0304
   -33.0304 -33.0303 -33.0303 -33.0301 -33.0301 -33.0300 -33.0300 -33.0298
   -33.0297 -33.0296 -33.0296 -33.0296 -33.0295 -33.0293 -33.0292 -33.0292
   -33.0292 -33.0291 -33.0289 -33.0287 -33.0287 -33.0286 -33.0284 -33.0283
   -33.0279 -33.0275 -33.0274 -33.0273 -33.0271 -33.0270 -33.0270 -33.0269
   -33.0267 -33.0266 -33.0264 -33.0264 -33.0264 -33.0262 -33.0262 -33.0261
   -33.0261 -33.0260 -33.0257 -33.0257 -33.0257 -33.0255 -33.0253 -33.0252
   -33.0236 -33.0234 -33.0041 -33.0041 -33.0039 -33.0039 -33.0037 -33.0036
   -33.0036 -33.0035 -33.0035 -33.0034 -33.0033 -33.0032 -33.0032 -33.0031
   -33.0030 -33.0030 -33.0029 -33.0028 -33.0028 -33.0027 -33.0027 -33.0026
   -33.0026 -33.0025 -33.0025 -33.0024 -33.0024 -33.0024 -33.0023 -33.0022
   -33.0022 -33.0022 -33.0021 -33.0021 -33.0021 -33.0020 -33.0020 -33.0019
   -33.0019 -33.0018 -33.0018 -33.0017 -33.0017 -33.0017 -33.0016 -33.0015
   -33.0015 -33.0014 -33.0014 -33.0013 -33.0012 -33.0012 -33.0012 -33.0011
   -33.0011 -33.0010 -33.0009 -33.0009 -33.0008 -33.0007 -33.0006 -33.0006
   -33.0005 -33.0004 -33.0004 -33.0003 -33.0002 -33.0001 -33.0000 -32.9999
   -32.9987 -32.9982 -32.9904 -32.9898 -32.9897 -32.9897 -32.9893 -32.9890
   -32.9888 -32.9886 -32.9884 -32.9883 -32.9882 -32.9881 -32.9881 -32.9880
   -32.9880 -32.9879 -32.9876 -32.9876 -32.9876 -32.9875 -32.9874 -32.9871
   -32.9868 -32.9866 -32.9864 -32.9863 -32.9859 -32.9859 -32.9858 -32.9857
   -32.9857 -32.9856 -32.9854 -32.9852 -32.9851 -32.9842 -23.6928 -23.6928
   -23.6925 -23.6922 -23.6801 -23.6797 -23.6512 -23.6506 -23.6339 -23.6339
   -23.6338 -23.6332 -23.5974 -23.5971 -23.5846 -23.5845 -23.5844 -23.5841
   -23.5589 -23.5589 -23.5588 -23.5584 -23.5495 -23.5495 -23.5494 -23.5494
   -23.5493 -23.5488 -23.5460 -23.5457 -23.5410 -23.5406 -23.5349 -23.5349
   -23.5346 -23.5342 -23.5316 -23.5311 -23.5034 -23.5034 -23.5030 -23.5029
   -23.4983 -23.4983 -23.4981 -23.4976 -23.4758 -23.4753 -23.4522 -23.4522
   -23.4519 -23.4516 -23.4353 -23.4350  -0.3217  -0.0126   0.0899   0.0912
     0.3829   0.3845   0.7648   1.0132   1.0140   1.1036   1.1049   1.2476
     1.3086   1.3098   1.4371   1.4381   1.5796   1.6232   1.6241   1.6319
     1.6328   1.7051   1.7410   1.7417   1.8181   1.8650   1.8658   1.8900
     1.9039   1.9058   1.9073   2.0055   2.0066   2.0105   2.0362   2.0706
     7.9046   7.9745   7.9750   8.2097   8.3191   8.3198   8.3770   8.3778
     8.5122   8.7983   8.8931   8.9010   8.9020   8.9653   9.0527   9.0534
     9.0545   9.0918   9.1553   9.1559   9.1785   9.1792   9.3255   9.3387
     9.3396   9.5256   9.6396   9.6405   9.7721   9.7735   9.9955   9.9958
    10.0593  10.1580  10.1598  10.2035  10.2255  10.4657  10.4675  10.5764
    10.5886  10.5890  10.6730  10.6740  10.7089  10.7094  10.8573  10.8748
    10.8759  11.0197  11.0205  11.0593  11.1382  11.1496  11.2627  11.4299
    11.4305  11.4503  11.4587  11.5112  11.5337  11.5344  11.5411  11.5425
    11.6095  11.6110  11.6198  11.6885  12.0229  12.0233  12.0800  12.1031
    12.1052  12.1440  12.1608  12.1613  12.1819  12.1824  12.3030  12.3043
    12.3505  12.4028  12.4456  12.4468  12.5828  12.6488  12.6768  12.7964
    12.7974  12.7981  12.7987  12.8046  12.8331  12.8863  12.8868  12.9333
    12.9340  12.9380  13.0139  13.0151  13.0353  13.0362  13.2580  13.2595
    13.4443  13.4916  13.4927  13.5463  13.8755  13.8760  13.8788  13.8793
    13.8852  13.8855  13.8858  13.8873  13.9931  13.9941  14.0050  14.0642
    14.1591  14.1601  14.2026  14.3297  14.3842  14.4178

          k = 0.5000-0.0000 0.1957 ( 82195 PWs)   bands (ev):

   -59.3207 -59.3207 -59.3180 -59.3178 -59.3178 -59.3175 -59.3125 -59.3121
   -59.3121 -59.3117 -59.3103 -59.3100 -59.3100 -59.3100 -59.3098 -59.3094
   -59.3092 -59.3089 -33.0318 -33.0317 -33.0314 -33.0313 -33.0313 -33.0312
   -33.0312 -33.0311 -33.0310 -33.0310 -33.0309 -33.0309 -33.0309 -33.0308
   -33.0307 -33.0306 -33.0306 -33.0305 -33.0305 -33.0304 -33.0304 -33.0304
   -33.0304 -33.0303 -33.0302 -33.0302 -33.0301 -33.0301 -33.0298 -33.0298
   -33.0297 -33.0297 -33.0296 -33.0296 -33.0294 -33.0294 -33.0293 -33.0292
   -33.0292 -33.0292 -33.0289 -33.0288 -33.0287 -33.0287 -33.0284 -33.0284
   -33.0278 -33.0275 -33.0274 -33.0273 -33.0271 -33.0270 -33.0270 -33.0269
   -33.0267 -33.0267 -33.0265 -33.0264 -33.0264 -33.0262 -33.0262 -33.0261
   -33.0260 -33.0260 -33.0258 -33.0257 -33.0257 -33.0254 -33.0253 -33.0252
   -33.0235 -33.0234 -33.0041 -33.0041 -33.0039 -33.0038 -33.0037 -33.0036
   -33.0036 -33.0035 -33.0035 -33.0033 -33.0033 -33.0032 -33.0031 -33.0031
   -33.0030 -33.0030 -33.0030 -33.0029 -33.0027 -33.0027 -33.0026 -33.0026
   -33.0026 -33.0025 -33.0025 -33.0025 -33.0024 -33.0023 -33.0023 -33.0023
   -33.0022 -33.0022 -33.0021 -33.0021 -33.0021 -33.0020 -33.0019 -33.0019
   -33.0018 -33.0018 -33.0018 -33.0017 -33.0017 -33.0016 -33.0016 -33.0015
   -33.0015 -33.0014 -33.0013 -33.0013 -33.0013 -33.0012 -33.0012 -33.0011
   -33.0011 -33.0010 -33.0009 -33.0009 -33.0008 -33.0008 -33.0007 -33.0006
   -33.0005 -33.0004 -33.0004 -33.0003 -33.0002 -33.0001 -33.0000 -32.9998
   -32.9987 -32.9982 -32.9904 -32.9898 -32.9897 -32.9897 -32.9892 -32.9891
   -32.9888 -32.9886 -32.9883 -32.9882 -32.9882 -32.9882 -32.9881 -32.9881
   -32.9880 -32.9878 -32.9877 -32.9876 -32.9876 -32.9875 -32.9874 -32.9871
   -32.9870 -32.9866 -32.9864 -32.9863 -32.9859 -32.9859 -32.9858 -32.9857
   -32.9857 -32.9856 -32.9853 -32.9852 -32.9851 -32.9841 -23.6928 -23.6928
   -23.6925 -23.6922 -23.6801 -23.6796 -23.6512 -23.6507 -23.6339 -23.6339
   -23.6336 -23.6333 -23.5974 -23.5971 -23.5846 -23.5845 -23.5844 -23.5841
   -23.5589 -23.5589 -23.5588 -23.5584 -23.5495 -23.5495 -23.5494 -23.5494
   -23.5492 -23.5488 -23.5460 -23.5457 -23.5410 -23.5406 -23.5349 -23.5349
   -23.5346 -23.5343 -23.5316 -23.5312 -23.5034 -23.5034 -23.5031 -23.5029
   -23.4983 -23.4983 -23.4980 -23.4977 -23.4758 -23.4754 -23.4522 -23.4522
   -23.4519 -23.4516 -23.4353 -23.4349  -0.3217  -0.0126   0.0902   0.0910
     0.3831   0.3842   0.7648   1.0135   1.0137   1.1038   1.1046   1.2476
     1.3088   1.3097   1.4373   1.4379   1.5797   1.6233   1.6241   1.6319
     1.6330   1.7052   1.7409   1.7418   1.8179   1.8650   1.8659   1.8900
     1.9039   1.9058   1.9073   2.0055   2.0064   2.0105   2.0361   2.0708
     7.9046   7.9743   7.9751   8.2099   8.3189   8.3198   8.3772   8.3775
     8.5124   8.7982   8.8931   8.9010   8.9020   8.9653   9.0527   9.0532
     9.0547   9.0918   9.1555   9.1559   9.1787   9.1793   9.3257   9.3389
     9.3397   9.5256   9.6396   9.6404   9.7722   9.7734   9.9954   9.9963
    10.0588  10.1582  10.1595  10.2038  10.2254  10.4658  10.4668  10.5766
    10.5888  10.5889  10.6727  10.6737  10.7085  10.7097  10.8568  10.8748
    10.8759  11.0197  11.0208  11.0593  11.1383  11.1491  11.2629  11.4298
    11.4308  11.4507  11.4588  11.5114  11.5337  11.5345  11.5413  11.5421
    11.6099  11.6108  11.6198  11.6886  12.0227  12.0233  12.0797  12.1034
    12.1047  12.1446  12.1601  12.1615  12.1818  12.1831  12.3033  12.3042
    12.3498  12.4030  12.4458  12.4467  12.5828  12.6486  12.6768  12.7964
    12.7971  12.7982  12.7986  12.8043  12.8334  12.8862  12.8867  12.9335
    12.9338  12.9387  13.0142  13.0151  13.0353  13.0363  13.2579  13.2595
    13.4440  13.4918  13.4925  13.5467  13.8757  13.8764  13.8788  13.8794
    13.8846  13.8856  13.8861  13.8869  13.9933  13.9939  14.0050  14.0644
    14.1590  14.1601  14.2027  14.3292  14.3842  14.4178

          k =-0.5000 0.0000 0.1957 ( 82195 PWs)   bands (ev):

   -59.3207 -59.3207 -59.3180 -59.3178 -59.3178 -59.3175 -59.3125 -59.3121
   -59.3121 -59.3117 -59.3103 -59.3100 -59.3100 -59.3100 -59.3098 -59.3094
   -59.3092 -59.3089 -33.0318 -33.0317 -33.0314 -33.0313 -33.0313 -33.0312
   -33.0312 -33.0311 -33.0310 -33.0310 -33.0310 -33.0309 -33.0308 -33.0308
   -33.0307 -33.0306 -33.0306 -33.0305 -33.0305 -33.0304 -33.0304 -33.0304
   -33.0304 -33.0303 -33.0302 -33.0301 -33.0301 -33.0301 -33.0298 -33.0298
   -33.0297 -33.0297 -33.0296 -33.0296 -33.0294 -33.0294 -33.0293 -33.0292
   -33.0292 -33.0292 -33.0289 -33.0288 -33.0287 -33.0287 -33.0284 -33.0284
   -33.0278 -33.0275 -33.0274 -33.0273 -33.0271 -33.0270 -33.0270 -33.0269
   -33.0267 -33.0267 -33.0265 -33.0264 -33.0264 -33.0262 -33.0262 -33.0261
   -33.0260 -33.0260 -33.0258 -33.0257 -33.0257 -33.0254 -33.0253 -33.0252
   -33.0235 -33.0234 -33.0041 -33.0041 -33.0039 -33.0038 -33.0037 -33.0036
   -33.0036 -33.0035 -33.0035 -33.0033 -33.0033 -33.0032 -33.0031 -33.0031
   -33.0031 -33.0030 -33.0029 -33.0028 -33.0028 -33.0027 -33.0027 -33.0026
   -33.0026 -33.0025 -33.0025 -33.0025 -33.0024 -33.0023 -33.0023 -33.0023
   -33.0022 -33.0021 -33.0021 -33.0021 -33.0021 -33.0020 -33.0019 -33.0019
   -33.0019 -33.0018 -33.0018 -33.0017 -33.0017 -33.0016 -33.0016 -33.0015
   -33.0015 -33.0014 -33.0014 -33.0013 -33.0012 -33.0012 -33.0012 -33.0011
   -33.0011 -33.0010 -33.0009 -33.0009 -33.0008 -33.0007 -33.0007 -33.0006
   -33.0005 -33.0004 -33.0004 -33.0003 -33.0002 -33.0001 -33.0000 -32.9998
   -32.9987 -32.9982 -32.9904 -32.9898 -32.9897 -32.9897 -32.9892 -32.9891
   -32.9888 -32.9886 -32.9883 -32.9882 -32.9882 -32.9882 -32.9881 -32.9881
   -32.9880 -32.9878 -32.9877 -32.9876 -32.9876 -32.9875 -32.9874 -32.9871
   -32.9870 -32.9866 -32.9864 -32.9863 -32.9859 -32.9859 -32.9858 -32.9857
   -32.9857 -32.9856 -32.9853 -32.9852 -32.9851 -32.9841 -23.6928 -23.6928
   -23.6925 -23.6922 -23.6801 -23.6796 -23.6512 -23.6507 -23.6339 -23.6339
   -23.6336 -23.6333 -23.5974 -23.5971 -23.5846 -23.5845 -23.5844 -23.5841
   -23.5589 -23.5589 -23.5588 -23.5584 -23.5495 -23.5495 -23.5494 -23.5494
   -23.5492 -23.5488 -23.5460 -23.5457 -23.5410 -23.5406 -23.5349 -23.5349
   -23.5346 -23.5343 -23.5316 -23.5312 -23.5034 -23.5034 -23.5031 -23.5029
   -23.4983 -23.4983 -23.4980 -23.4977 -23.4758 -23.4754 -23.4522 -23.4522
   -23.4519 -23.4516 -23.4353 -23.4349  -0.3217  -0.0126   0.0902   0.0910
     0.3831   0.3843   0.7648   1.0135   1.0137   1.1038   1.1046   1.2476
     1.3088   1.3096   1.4373   1.4379   1.5797   1.6233   1.6240   1.6319
     1.6330   1.7052   1.7409   1.7418   1.8179   1.8650   1.8659   1.8900
     1.9039   1.9058   1.9072   2.0055   2.0064   2.0105   2.0361   2.0708
     7.9046   7.9744   7.9751   8.2098   8.3188   8.3198   8.3772   8.3776
     8.5124   8.7983   8.8929   8.9011   8.9019   8.9654   9.0527   9.0534
     9.0544   9.0918   9.1553   9.1561   9.1788   9.1792   9.3256   9.3389
     9.3394   9.5257   9.6396   9.6405   9.7722   9.7734   9.9953   9.9963
    10.0590  10.1580  10.1593  10.2034  10.2258  10.4659  10.4670  10.5761
    10.5886  10.5888  10.6731  10.6740  10.7088  10.7097  10.8572  10.8749
    10.8758  11.0200  11.0202  11.0591  11.1382  11.1497  11.2626  11.4299
    11.4303  11.4503  11.4588  11.5113  11.5337  11.5346  11.5412  11.5424
    11.6098  11.6104  11.6200  11.6884  12.0228  12.0235  12.0801  12.1034
    12.1050  12.1443  12.1603  12.1615  12.1817  12.1827  12.3034  12.3039
    12.3502  12.4025  12.4455  12.4468  12.5830  12.6487  12.6767  12.7968
    12.7977  12.7980  12.7985  12.8047  12.8335  12.8863  12.8868  12.9332
    12.9339  12.9385  13.0142  13.0149  13.0351  13.0363  13.2580  13.2597
    13.4441  13.4915  13.4928  13.5461  13.8752  13.8762  13.8788  13.8793
    13.8849  13.8854  13.8861  13.8871  13.9932  13.9941  14.0051  14.0643
    14.1592  14.1600  14.2025  14.3298  14.3842  14.4176

          k =-0.2500 0.1443 0.1957 ( 82157 PWs)   bands (ev):

   -59.3223 -59.3223 -59.3167 -59.3166 -59.3145 -59.3145 -59.3145 -59.3143
   -59.3119 -59.3117 -59.3116 -59.3113 -59.3109 -59.3106 -59.3088 -59.3087
   -59.3086 -59.3084 -33.0320 -33.0317 -33.0316 -33.0315 -33.0315 -33.0314
   -33.0313 -33.0313 -33.0313 -33.0311 -33.0310 -33.0310 -33.0309 -33.0309
   -33.0308 -33.0308 -33.0307 -33.0307 -33.0306 -33.0306 -33.0305 -33.0305
   -33.0305 -33.0304 -33.0304 -33.0303 -33.0302 -33.0301 -33.0300 -33.0300
   -33.0299 -33.0299 -33.0297 -33.0295 -33.0291 -33.0290 -33.0288 -33.0287
   -33.0286 -33.0282 -33.0281 -33.0280 -33.0280 -33.0279 -33.0279 -33.0275
   -33.0274 -33.0274 -33.0273 -33.0271 -33.0271 -33.0271 -33.0269 -33.0269
   -33.0268 -33.0267 -33.0267 -33.0266 -33.0265 -33.0264 -33.0264 -33.0264
   -33.0263 -33.0262 -33.0262 -33.0260 -33.0259 -33.0258 -33.0256 -33.0254
   -33.0237 -33.0235 -33.0043 -33.0043 -33.0038 -33.0037 -33.0036 -33.0035
   -33.0035 -33.0034 -33.0033 -33.0033 -33.0032 -33.0031 -33.0031 -33.0030
   -33.0030 -33.0029 -33.0029 -33.0028 -33.0028 -33.0028 -33.0027 -33.0027
   -33.0026 -33.0026 -33.0025 -33.0025 -33.0024 -33.0024 -33.0024 -33.0023
   -33.0022 -33.0022 -33.0022 -33.0021 -33.0020 -33.0020 -33.0019 -33.0019
   -33.0019 -33.0019 -33.0018 -33.0018 -33.0018 -33.0017 -33.0017 -33.0016
   -33.0016 -33.0015 -33.0014 -33.0014 -33.0013 -33.0013 -33.0012 -33.0011
   -33.0010 -33.0010 -33.0009 -33.0009 -33.0008 -33.0008 -33.0007 -33.0006
   -33.0004 -33.0004 -33.0002 -33.0002 -33.0001 -33.0000 -32.9999 -32.9998
   -32.9987 -32.9982 -32.9907 -32.9900 -32.9895 -32.9892 -32.9890 -32.9890
   -32.9887 -32.9886 -32.9885 -32.9885 -32.9884 -32.9883 -32.9881 -32.9880
   -32.9880 -32.9879 -32.9878 -32.9876 -32.9875 -32.9873 -32.9871 -32.9869
   -32.9868 -32.9866 -32.9863 -32.9862 -32.9862 -32.9860 -32.9860 -32.9857
   -32.9856 -32.9856 -32.9855 -32.9852 -32.9851 -32.9842 -23.6847 -23.6841
   -23.6598 -23.6598 -23.6596 -23.6592 -23.6546 -23.6546 -23.6543 -23.6539
   -23.6047 -23.6044 -23.6022 -23.6022 -23.6020 -23.6016 -23.5791 -23.5789
   -23.5697 -23.5697 -23.5695 -23.5694 -23.5692 -23.5692 -23.5689 -23.5687
   -23.5641 -23.5636 -23.5569 -23.5569 -23.5566 -23.5566 -23.5534 -23.5531
   -23.5440 -23.5440 -23.5438 -23.5437 -23.4885 -23.4885 -23.4882 -23.4880
   -23.4832 -23.4828 -23.4717 -23.4717 -23.4713 -23.4712 -23.4547 -23.4543
   -23.4409 -23.4405 -23.4261 -23.4257  -0.5408  -0.2262   0.2816   0.5641
     0.6326   0.6380   0.6391   0.8940   0.8953   1.1282   1.1441   1.2148
     1.2159   1.3424   1.3431   1.4016   1.4026   1.4094   1.5217   1.5615
     1.6748   1.6755   1.6815   1.6826   1.7853   1.8920   1.8928   1.9166
     1.9178   1.9425   1.9686   1.9696   2.0697   2.0710   2.1164   2.1174
     7.6366   8.0868   8.4423   8.4749   8.4751   8.5506   8.6874   8.6881
     8.7259   8.8174   8.8180   8.8201   8.8205   8.8451   8.8462   8.9927
     8.9940   9.1486   9.1868   9.1876   9.2830   9.3809   9.3812   9.3964
     9.4441   9.4445   9.4624   9.4627   9.7087   9.7098   9.9032   9.9046
     9.9887  10.0526  10.0531  10.1795  10.1919  10.1924  10.2913  10.3729
    10.3736  10.5391  10.5404  10.6644  10.6656  10.7042  10.7052  10.7067
    10.7071  10.7287  10.7669  10.7883  10.7893  11.1588  11.1965  11.3251
    11.3259  11.4150  11.4154  11.4486  11.4502  11.5897  11.5900  11.6683
    11.6790  11.6806  11.8036  11.9158  11.9169  12.0209  12.0608  12.1091
    12.1918  12.1925  12.3552  12.4328  12.4331  12.4673  12.4684  12.4732
    12.5021  12.5177  12.5186  12.5393  12.5398  12.6173  12.7622  12.7631
    12.7760  12.8344  12.8347  12.8521  12.8531  12.9378  12.9382  12.9635
    12.9647  13.1329  13.1637  13.1719  13.1722  13.2536  13.2717  13.3175
    13.4043  13.4854  13.5027  13.5471  13.5851  13.6110  13.6551  13.7239
    13.7243  13.7660  13.7671  13.8278  13.8282  13.9176  13.9530  13.9534
    14.2335  14.2337  14.5194  14.5194  14.5442  14.8073

          k =-0.2500-0.1443-0.1957 ( 82157 PWs)   bands (ev):

   -59.3223 -59.3223 -59.3166 -59.3166 -59.3148 -59.3145 -59.3145 -59.3142
   -59.3117 -59.3117 -59.3116 -59.3115 -59.3109 -59.3106 -59.3088 -59.3087
   -59.3086 -59.3084 -33.0319 -33.0317 -33.0316 -33.0315 -33.0315 -33.0314
   -33.0313 -33.0313 -33.0312 -33.0311 -33.0310 -33.0310 -33.0310 -33.0309
   -33.0308 -33.0308 -33.0307 -33.0307 -33.0306 -33.0306 -33.0305 -33.0305
   -33.0305 -33.0304 -33.0304 -33.0303 -33.0302 -33.0301 -33.0300 -33.0300
   -33.0299 -33.0298 -33.0297 -33.0296 -33.0292 -33.0289 -33.0288 -33.0287
   -33.0286 -33.0282 -33.0281 -33.0281 -33.0279 -33.0279 -33.0278 -33.0275
   -33.0275 -33.0274 -33.0272 -33.0271 -33.0271 -33.0271 -33.0269 -33.0269
   -33.0269 -33.0267 -33.0267 -33.0267 -33.0265 -33.0264 -33.0264 -33.0264
   -33.0263 -33.0262 -33.0262 -33.0260 -33.0259 -33.0258 -33.0256 -33.0253
   -33.0236 -33.0235 -33.0043 -33.0043 -33.0038 -33.0036 -33.0036 -33.0035
   -33.0034 -33.0034 -33.0033 -33.0033 -33.0032 -33.0032 -33.0031 -33.0030
   -33.0030 -33.0029 -33.0028 -33.0028 -33.0028 -33.0028 -33.0027 -33.0027
   -33.0026 -33.0025 -33.0025 -33.0025 -33.0025 -33.0024 -33.0024 -33.0023
   -33.0023 -33.0022 -33.0021 -33.0021 -33.0020 -33.0020 -33.0020 -33.0019
   -33.0019 -33.0019 -33.0018 -33.0018 -33.0018 -33.0017 -33.0017 -33.0016
   -33.0016 -33.0015 -33.0015 -33.0014 -33.0013 -33.0013 -33.0012 -33.0011
   -33.0010 -33.0010 -33.0009 -33.0009 -33.0008 -33.0008 -33.0007 -33.0006
   -33.0004 -33.0004 -33.0002 -33.0002 -33.0001 -33.0000 -33.0000 -32.9998
   -32.9987 -32.9982 -32.9907 -32.9900 -32.9896 -32.9891 -32.9891 -32.9890
   -32.9887 -32.9887 -32.9885 -32.9885 -32.9884 -32.9883 -32.9881 -32.9880
   -32.9880 -32.9879 -32.9878 -32.9876 -32.9875 -32.9873 -32.9870 -32.9869
   -32.9868 -32.9866 -32.9863 -32.9863 -32.9862 -32.9860 -32.9860 -32.9857
   -32.9856 -32.9856 -32.9855 -32.9852 -32.9851 -32.9842 -23.6847 -23.6843
   -23.6598 -23.6598 -23.6595 -23.6592 -23.6546 -23.6546 -23.6543 -23.6539
   -23.6047 -23.6044 -23.6022 -23.6022 -23.6018 -23.6015 -23.5791 -23.5788
   -23.5697 -23.5697 -23.5695 -23.5694 -23.5692 -23.5692 -23.5689 -23.5687
   -23.5641 -23.5637 -23.5569 -23.5569 -23.5566 -23.5566 -23.5534 -23.5531
   -23.5440 -23.5440 -23.5438 -23.5437 -23.4885 -23.4885 -23.4883 -23.4879
   -23.4832 -23.4828 -23.4717 -23.4717 -23.4715 -23.4711 -23.4547 -23.4543
   -23.4409 -23.4405 -23.4261 -23.4256  -0.5408  -0.2262   0.2817   0.5641
     0.6326   0.6380   0.6390   0.8940   0.8951   1.1282   1.1440   1.2149
     1.2157   1.3425   1.3433   1.4016   1.4024   1.4097   1.5216   1.5616
     1.6748   1.6757   1.6815   1.6827   1.7852   1.8920   1.8931   1.9166
     1.9177   1.9421   1.9687   1.9696   2.0697   2.0709   2.1164   2.1175
     7.6366   8.0865   8.4419   8.4749   8.4753   8.5506   8.6873   8.6884
     8.7258   8.8175   8.8179   8.8200   8.8205   8.8453   8.8461   8.9932
     8.9938   9.1487   9.1867   9.1876   9.2833   9.3805   9.3816   9.3968
     9.4440   9.4449   9.4625   9.4627   9.7087   9.7100   9.9031   9.9044
     9.9893  10.0524  10.0530  10.1796  10.1917  10.1919  10.2908  10.3729
    10.3738  10.5392  10.5404  10.6645  10.6650  10.7042  10.7051  10.7064
    10.7067  10.7291  10.7667  10.7883  10.7890  11.1588  11.1965  11.3253
    11.3255  11.4148  11.4152  11.4490  11.4501  11.5895  11.5899  11.6687
    11.6790  11.6798  11.8041  11.9160  11.9168  12.0211  12.0612  12.1088
    12.1924  12.1927  12.3559  12.4328  12.4339  12.4663  12.4681  12.4739
    12.5018  12.5184  12.5191  12.5387  12.5399  12.6169  12.7626  12.7634
    12.7750  12.8336  12.8346  12.8524  12.8535  12.9377  12.9383  12.9633
    12.9646  13.1327  13.1638  13.1719  13.1726  13.2534  13.2713  13.3186
    13.4055  13.4851  13.5020  13.5467  13.5846  13.6112  13.6548  13.7244
    13.7248  13.7663  13.7676  13.8275  13.8281  13.9177  13.9527  13.9535
    14.2336  14.2337  14.5194  14.5195  14.5437  14.8072

          k = 0.2500 0.1443-0.1957 ( 82157 PWs)   bands (ev):

   -59.3223 -59.3223 -59.3166 -59.3166 -59.3148 -59.3145 -59.3145 -59.3142
   -59.3117 -59.3117 -59.3116 -59.3115 -59.3109 -59.3106 -59.3088 -59.3087
   -59.3086 -59.3084 -33.0319 -33.0317 -33.0316 -33.0315 -33.0315 -33.0314
   -33.0313 -33.0313 -33.0312 -33.0311 -33.0311 -33.0310 -33.0309 -33.0309
   -33.0308 -33.0308 -33.0307 -33.0307 -33.0307 -33.0306 -33.0305 -33.0305
   -33.0305 -33.0304 -33.0304 -33.0303 -33.0302 -33.0301 -33.0300 -33.0300
   -33.0299 -33.0298 -33.0297 -33.0296 -33.0292 -33.0289 -33.0288 -33.0287
   -33.0286 -33.0282 -33.0281 -33.0281 -33.0279 -33.0279 -33.0278 -33.0275
   -33.0275 -33.0274 -33.0272 -33.0271 -33.0271 -33.0271 -33.0269 -33.0269
   -33.0269 -33.0267 -33.0267 -33.0267 -33.0265 -33.0264 -33.0264 -33.0264
   -33.0263 -33.0262 -33.0262 -33.0260 -33.0259 -33.0258 -33.0256 -33.0253
   -33.0236 -33.0235 -33.0043 -33.0043 -33.0039 -33.0037 -33.0036 -33.0035
   -33.0034 -33.0033 -33.0033 -33.0033 -33.0032 -33.0031 -33.0031 -33.0030
   -33.0030 -33.0029 -33.0029 -33.0028 -33.0028 -33.0028 -33.0027 -33.0026
   -33.0026 -33.0026 -33.0025 -33.0025 -33.0024 -33.0024 -33.0024 -33.0023
   -33.0022 -33.0022 -33.0021 -33.0021 -33.0020 -33.0020 -33.0020 -33.0019
   -33.0019 -33.0019 -33.0018 -33.0018 -33.0018 -33.0017 -33.0017 -33.0016
   -33.0016 -33.0015 -33.0014 -33.0014 -33.0013 -33.0013 -33.0012 -33.0011
   -33.0010 -33.0010 -33.0009 -33.0009 -33.0008 -33.0008 -33.0007 -33.0006
   -33.0004 -33.0004 -33.0002 -33.0002 -33.0001 -33.0000 -33.0000 -32.9998
   -32.9987 -32.9982 -32.9907 -32.9900 -32.9896 -32.9891 -32.9891 -32.9890
   -32.9887 -32.9887 -32.9885 -32.9885 -32.9884 -32.9883 -32.9881 -32.9880
   -32.9880 -32.9879 -32.9878 -32.9876 -32.9875 -32.9873 -32.9870 -32.9869
   -32.9868 -32.9866 -32.9863 -32.9863 -32.9862 -32.9860 -32.9860 -32.9857
   -32.9856 -32.9856 -32.9855 -32.9852 -32.9851 -32.9842 -23.6847 -23.6843
   -23.6598 -23.6598 -23.6595 -23.6592 -23.6546 -23.6546 -23.6543 -23.6539
   -23.6047 -23.6044 -23.6022 -23.6022 -23.6018 -23.6015 -23.5791 -23.5788
   -23.5697 -23.5697 -23.5695 -23.5694 -23.5692 -23.5692 -23.5689 -23.5687
   -23.5641 -23.5637 -23.5569 -23.5569 -23.5566 -23.5566 -23.5534 -23.5531
   -23.5440 -23.5440 -23.5438 -23.5437 -23.4885 -23.4885 -23.4883 -23.4879
   -23.4832 -23.4828 -23.4717 -23.4717 -23.4715 -23.4711 -23.4547 -23.4543
   -23.4409 -23.4405 -23.4261 -23.4256  -0.5408  -0.2262   0.2817   0.5641
     0.6326   0.6380   0.6389   0.8940   0.8951   1.1281   1.1440   1.2149
     1.2157   1.3425   1.3433   1.4016   1.4025   1.4097   1.5216   1.5616
     1.6748   1.6757   1.6815   1.6826   1.7853   1.8920   1.8931   1.9166
     1.9177   1.9421   1.9687   1.9695   2.0697   2.0710   2.1164   2.1175
     7.6366   8.0866   8.4418   8.4748   8.4751   8.5506   8.6875   8.6882
     8.7259   8.8176   8.8184   8.8201   8.8208   8.8449   8.8463   8.9928
     8.9940   9.1486   9.1870   9.1875   9.2835   9.3813   9.3815   9.3968
     9.4433   9.4438   9.4614   9.4628   9.7083   9.7097   9.9045   9.9056
     9.9893  10.0524  10.0530  10.1796  10.1915  10.1922  10.2902  10.3731
    10.3737  10.5393  10.5404  10.6644  10.6647  10.7043  10.7047  10.7062
    10.7072  10.7291  10.7675  10.7878  10.7890  11.1585  11.1964  11.3256
    11.3264  11.4148  11.4155  11.4490  11.4493  11.5892  11.5896  11.6687
    11.6790  11.6794  11.8041  11.9161  11.9171  12.0211  12.0611  12.1082
    12.1918  12.1926  12.3559  12.4331  12.4338  12.4669  12.4682  12.4739
    12.5017  12.5183  12.5188  12.5393  12.5399  12.6175  12.7620  12.7631
    12.7754  12.8345  12.8350  12.8524  12.8532  12.9379  12.9388  12.9638
    12.9640  13.1328  13.1629  13.1714  13.1723  13.2533  13.2712  13.3187
    13.4055  13.4850  13.5016  13.5467  13.5854  13.6112  13.6542  13.7245
    13.7251  13.7663  13.7674  13.8276  13.8284  13.9177  13.9526  13.9531
    14.2334  14.2336  14.5194  14.5197  14.5442  14.8071

          k = 0.0000-0.2887 0.1957 ( 82157 PWs)   bands (ev):

   -59.3223 -59.3223 -59.3167 -59.3166 -59.3146 -59.3145 -59.3145 -59.3143
   -59.3118 -59.3117 -59.3116 -59.3114 -59.3109 -59.3106 -59.3088 -59.3087
   -59.3086 -59.3084 -33.0319 -33.0317 -33.0316 -33.0315 -33.0314 -33.0314
   -33.0313 -33.0313 -33.0313 -33.0312 -33.0311 -33.0310 -33.0310 -33.0309
   -33.0308 -33.0308 -33.0307 -33.0307 -33.0307 -33.0306 -33.0305 -33.0305
   -33.0305 -33.0304 -33.0304 -33.0303 -33.0302 -33.0302 -33.0300 -33.0300
   -33.0299 -33.0299 -33.0296 -33.0295 -33.0293 -33.0289 -33.0288 -33.0287
   -33.0286 -33.0283 -33.0281 -33.0280 -33.0279 -33.0279 -33.0278 -33.0275
   -33.0274 -33.0274 -33.0273 -33.0271 -33.0271 -33.0271 -33.0269 -33.0269
   -33.0269 -33.0267 -33.0267 -33.0266 -33.0265 -33.0265 -33.0264 -33.0264
   -33.0263 -33.0262 -33.0262 -33.0260 -33.0259 -33.0258 -33.0255 -33.0253
   -33.0236 -33.0235 -33.0043 -33.0043 -33.0038 -33.0037 -33.0036 -33.0035
   -33.0034 -33.0034 -33.0033 -33.0033 -33.0032 -33.0031 -33.0031 -33.0030
   -33.0030 -33.0030 -33.0029 -33.0028 -33.0028 -33.0027 -33.0027 -33.0026
   -33.0026 -33.0025 -33.0025 -33.0025 -33.0025 -33.0024 -33.0024 -33.0023
   -33.0023 -33.0022 -33.0021 -33.0021 -33.0020 -33.0020 -33.0020 -33.0019
   -33.0019 -33.0019 -33.0019 -33.0018 -33.0018 -33.0017 -33.0017 -33.0016
   -33.0016 -33.0015 -33.0015 -33.0014 -33.0013 -33.0013 -33.0012 -33.0011
   -33.0011 -33.0010 -33.0009 -33.0009 -33.0008 -33.0007 -33.0007 -33.0006
   -33.0004 -33.0004 -33.0002 -33.0002 -33.0001 -33.0000 -32.9999 -32.9999
   -32.9987 -32.9982 -32.9907 -32.9900 -32.9895 -32.9891 -32.9891 -32.9890
   -32.9887 -32.9886 -32.9885 -32.9885 -32.9884 -32.9883 -32.9882 -32.9880
   -32.9880 -32.9879 -32.9878 -32.9876 -32.9875 -32.9873 -32.9871 -32.9869
   -32.9868 -32.9866 -32.9863 -32.9862 -32.9862 -32.9861 -32.9860 -32.9857
   -32.9856 -32.9856 -32.9855 -32.9852 -32.9851 -32.9842 -23.6847 -23.6842
   -23.6598 -23.6598 -23.6596 -23.6592 -23.6546 -23.6546 -23.6543 -23.6539
   -23.6047 -23.6044 -23.6022 -23.6022 -23.6019 -23.6015 -23.5791 -23.5788
   -23.5697 -23.5697 -23.5695 -23.5694 -23.5692 -23.5692 -23.5689 -23.5687
   -23.5641 -23.5637 -23.5569 -23.5569 -23.5566 -23.5566 -23.5534 -23.5531
   -23.5440 -23.5440 -23.5438 -23.5437 -23.4885 -23.4885 -23.4883 -23.4880
   -23.4832 -23.4828 -23.4717 -23.4717 -23.4714 -23.4711 -23.4547 -23.4543
   -23.4409 -23.4405 -23.4261 -23.4256  -0.5408  -0.2262   0.2817   0.5641
     0.6325   0.6378   0.6393   0.8938   0.8954   1.1282   1.1440   1.2147
     1.2160   1.3422   1.3434   1.4015   1.4027   1.4095   1.5217   1.5616
     1.6747   1.6757   1.6814   1.6827   1.7853   1.8920   1.8930   1.9166
     1.9177   1.9423   1.9686   1.9696   2.0697   2.0709   2.1164   2.1175
     7.6366   8.0866   8.4421   8.4748   8.4753   8.5506   8.6870   8.6885
     8.7258   8.8173   8.8181   8.8200   8.8206   8.8449   8.8465   8.9928
     8.9940   9.1487   9.1867   9.1876   9.2832   9.3807   9.3815   9.3966
     9.4440   9.4447   9.4624   9.4628   9.7087   9.7099   9.9031   9.9046
     9.9890  10.0523  10.0532  10.1796  10.1918  10.1922  10.2911  10.3726
    10.3740  10.5385  10.5410  10.6642  10.6655  10.7042  10.7052  10.7067
    10.7068  10.7289  10.7668  10.7880  10.7895  11.1588  11.1965  11.3252
    11.3257  11.4148  11.4154  11.4483  11.4506  11.5894  11.5901  11.6685
    11.6788  11.6805  11.8039  11.9158  11.9169  12.0210  12.0610  12.1089
    12.1919  12.1928  12.3556  12.4328  12.4336  12.4667  12.4683  12.4736
    12.5019  12.5178  12.5191  12.5392  12.5396  12.6171  12.7621  12.7635
    12.7755  12.8339  12.8347  12.8518  12.8537  12.9376  12.9384  12.9635
    12.9645  13.1328  13.1638  13.1719  13.1724  13.2535  13.2715  13.3181
    13.4049  13.4852  13.5023  13.5469  13.5848  13.6111  13.6549  13.7240
    13.7248  13.7660  13.7674  13.8275  13.8283  13.9176  13.9528  13.9535
    14.2335  14.2337  14.5194  14.5195  14.5440  14.8072

          k = 0.0000 0.2887 0.1957 ( 82157 PWs)   bands (ev):

   -59.3223 -59.3223 -59.3167 -59.3166 -59.3146 -59.3145 -59.3145 -59.3143
   -59.3118 -59.3117 -59.3116 -59.3114 -59.3109 -59.3106 -59.3088 -59.3087
   -59.3086 -59.3084 -33.0319 -33.0317 -33.0316 -33.0315 -33.0314 -33.0314
   -33.0313 -33.0313 -33.0313 -33.0312 -33.0311 -33.0310 -33.0310 -33.0309
   -33.0308 -33.0308 -33.0307 -33.0307 -33.0307 -33.0306 -33.0305 -33.0305
   -33.0305 -33.0304 -33.0304 -33.0303 -33.0302 -33.0302 -33.0300 -33.0300
   -33.0299 -33.0299 -33.0296 -33.0295 -33.0293 -33.0289 -33.0288 -33.0287
   -33.0286 -33.0283 -33.0281 -33.0280 -33.0279 -33.0279 -33.0278 -33.0275
   -33.0274 -33.0274 -33.0273 -33.0271 -33.0271 -33.0271 -33.0269 -33.0269
   -33.0269 -33.0267 -33.0267 -33.0266 -33.0265 -33.0265 -33.0264 -33.0264
   -33.0263 -33.0262 -33.0262 -33.0260 -33.0259 -33.0258 -33.0255 -33.0253
   -33.0236 -33.0235 -33.0043 -33.0043 -33.0039 -33.0037 -33.0036 -33.0035
   -33.0035 -33.0034 -33.0033 -33.0033 -33.0032 -33.0032 -33.0030 -33.0030
   -33.0030 -33.0029 -33.0029 -33.0028 -33.0028 -33.0028 -33.0027 -33.0027
   -33.0026 -33.0026 -33.0025 -33.0025 -33.0024 -33.0024 -33.0024 -33.0023
   -33.0022 -33.0022 -33.0021 -33.0021 -33.0021 -33.0020 -33.0020 -33.0019
   -33.0019 -33.0019 -33.0018 -33.0018 -33.0018 -33.0017 -33.0017 -33.0016
   -33.0016 -33.0015 -33.0015 -33.0014 -33.0013 -33.0013 -33.0012 -33.0011
   -33.0010 -33.0009 -33.0009 -33.0009 -33.0008 -33.0007 -33.0007 -33.0006
   -33.0004 -33.0004 -33.0002 -33.0002 -33.0001 -33.0000 -32.9999 -32.9999
   -32.9987 -32.9982 -32.9907 -32.9900 -32.9895 -32.9891 -32.9891 -32.9890
   -32.9887 -32.9886 -32.9885 -32.9885 -32.9884 -32.9883 -32.9881 -32.9880
   -32.9880 -32.9879 -32.9878 -32.9876 -32.9875 -32.9873 -32.9871 -32.9869
   -32.9868 -32.9866 -32.9863 -32.9862 -32.9862 -32.9861 -32.9860 -32.9857
   -32.9856 -32.9856 -32.9855 -32.9852 -32.9851 -32.9842 -23.6847 -23.6842
   -23.6598 -23.6598 -23.6596 -23.6592 -23.6546 -23.6546 -23.6543 -23.6539
   -23.6047 -23.6044 -23.6022 -23.6022 -23.6019 -23.6015 -23.5791 -23.5788
   -23.5697 -23.5697 -23.5695 -23.5694 -23.5692 -23.5692 -23.5689 -23.5687
   -23.5641 -23.5637 -23.5569 -23.5569 -23.5566 -23.5566 -23.5534 -23.5531
   -23.5440 -23.5440 -23.5438 -23.5437 -23.4885 -23.4885 -23.4883 -23.4880
   -23.4832 -23.4828 -23.4717 -23.4717 -23.4714 -23.4711 -23.4547 -23.4543
   -23.4409 -23.4405 -23.4261 -23.4256  -0.5408  -0.2262   0.2817   0.5641
     0.6326   0.6378   0.6393   0.8938   0.8954   1.1282   1.1440   1.2147
     1.2160   1.3423   1.3434   1.4015   1.4027   1.4095   1.5217   1.5615
     1.6747   1.6757   1.6814   1.6827   1.7853   1.8920   1.8930   1.9166
     1.9177   1.9423   1.9686   1.9696   2.0697   2.0710   2.1164   2.1175
     7.6366   8.0867   8.4420   8.4746   8.4753   8.5505   8.6872   8.6886
     8.7258   8.8176   8.8184   8.8201   8.8207   8.8447   8.8464   8.9929
     8.9941   9.1486   9.1866   9.1878   9.2833   9.3813   9.3814   9.3970
     9.4432   9.4441   9.4616   9.4627   9.7083   9.7098   9.9044   9.9055
     9.9889  10.0523  10.0533  10.1797  10.1912  10.1925  10.2900  10.3731
    10.3741  10.5391  10.5406  10.6645  10.6648  10.7042  10.7047  10.7061
    10.7076  10.7290  10.7675  10.7872  10.7895  11.1587  11.1965  11.3250
    11.3268  11.4147  11.4163  11.4489  11.4495  11.5892  11.5897  11.6685
    11.6789  11.6798  11.8039  11.9158  11.9174  12.0210  12.0610  12.1089
    12.1920  12.1926  12.3556  12.4326  12.4333  12.4668  12.4683  12.4736
    12.5019  12.5182  12.5190  12.5389  12.5400  12.6174  12.7621  12.7631
    12.7755  12.8340  12.8352  12.8522  12.8532  12.9373  12.9389  12.9640
    12.9641  13.1329  13.1633  13.1718  13.1722  13.2534  13.2715  13.3181
    13.4049  13.4855  13.5020  13.5469  13.5856  13.6111  13.6545  13.7242
    13.7251  13.7660  13.7670  13.8278  13.8286  13.9177  13.9527  13.9531
    14.2335  14.2336  14.5194  14.5196  14.5440  14.8072

     highest occupied level (ev):    14.8074

!    total energy              =  -11463.64110045 Ry
     estimated scf accuracy    <          6.5E-11 Ry

     The total energy is the sum of the following terms:
     one-electron contribution =   -4881.13689358 Ry
     hartree contribution      =    2761.54667091 Ry
     xc contribution           =   -2343.52278663 Ry
     ewald contribution        =   -6998.49249758 Ry
     Dispersion Correction     =      -2.03559356 Ry

     convergence has been achieved in  24 iterations

     Forces acting on atoms (cartesian axes, Ry/au):

     atom    1 type  1   force =    -0.00001752    0.00000005    0.00005376
     atom    2 type  1   force =    -0.00000047    0.00000944   -0.00000759
     atom    3 type  1   force =    -0.00000801    0.00000348   -0.00001542
     atom    4 type  1   force =    -0.00000814   -0.00000059   -0.00000691
     atom    5 type  1   force =     0.00000675    0.00000091   -0.00001620
     atom    6 type  1   force =     0.00000161   -0.00000008    0.00000467
     atom    7 type  1   force =    -0.00000922   -0.00000472   -0.00000303
     atom    8 type  1   force =     0.00000655   -0.00000039    0.00000920
     atom    9 type  1   force =    -0.00000223   -0.00000878   -0.00002014
     atom   10 type  1   force =    -0.00218272    0.00111302   -0.00228349
     atom   11 type  1   force =    -0.00002147   -0.00000827   -0.00004343
     atom   12 type  1   force =     0.00009059    0.00019937   -0.00065616
     atom   13 type  1   force =    -0.00025477   -0.00132191   -0.00147966
     atom   14 type  1   force =    -0.00008160   -0.00010134   -0.00009764
     atom   15 type  1   force =     0.00002917    0.00003784   -0.00004275
     atom   16 type  1   force =    -0.00000854    0.00000749   -0.00004117
     atom   17 type  1   force =    -0.00002266    0.00000078   -0.00004563
     atom   18 type  1   force =     0.00009431    0.00006419   -0.00007045
     atom   19 type  2   force =     0.00298019    0.00001090    0.00479565
     atom   20 type  2   force =    -0.00021622   -0.00000378   -0.00006834
     atom   21 type  2   force =    -0.00028761   -0.00001597   -0.00001341
     atom   22 type  2   force =    -0.00005246    0.00016039   -0.00002053
     atom   23 type  2   force =    -0.00003615   -0.00009168   -0.00006155
     atom   24 type  2   force =     0.00000471   -0.00000015   -0.00014589
     atom   25 type  2   force =    -0.00001852    0.00008911   -0.00004824
     atom   26 type  2   force =     0.00000448   -0.00000018   -0.00014588
     atom   27 type  2   force =    -0.00006994   -0.00013840   -0.00003431
     atom   28 type  2   force =     0.00006846   -0.00002801    0.00011574
     atom   29 type  2   force =    -0.00000123    0.00000427    0.00014146
     atom   30 type  2   force =    -0.00011969   -0.00008076   -0.00003249
     atom   31 type  2   force =     0.00002002    0.00010875    0.00004175
     atom   32 type  2   force =     0.00000678    0.00000004    0.00015604
     atom   33 type  2   force =    -0.00000729    0.00000849    0.00014606
     atom   34 type  2   force =    -0.00000544   -0.00000262    0.00013850
     atom   35 type  2   force =     0.00000197   -0.00000188    0.00014402
     atom   36 type  2   force =     0.00000697   -0.00000821    0.00015104
     atom   37 type  2   force =     0.00000184   -0.00000066   -0.00010553
     atom   38 type  2   force =     0.00000406    0.00000037   -0.00010168
     atom   39 type  2   force =     0.00000001   -0.00000026   -0.00010432
     atom   40 type  2   force =     0.00000052    0.00000126   -0.00010489
     atom   41 type  2   force =    -0.00000023   -0.00000146   -0.00009827
     atom   42 type  2   force =     0.00000225    0.00000054   -0.00010111
     atom   43 type  2   force =     0.00000081   -0.00000202   -0.00010179
     atom   44 type  2   force =     0.00000146    0.00000146   -0.00010147
     atom   45 type  2   force =     0.00000259    0.00000126   -0.00009974
     atom   46 type  2   force =     0.00006323    0.00000000   -0.00034474
     atom   47 type  2   force =    -0.00006972   -0.00006622    0.00004760
     atom   48 type  2   force =     0.00002173   -0.00001741    0.00011858
     atom   49 type  2   force =     0.00008434   -0.00001385    0.00007266
     atom   50 type  2   force =    -0.00003371   -0.00002338    0.00009334
     atom   51 type  2   force =    -0.00001051   -0.00000001    0.00013355
     atom   52 type  2   force =     0.00003929    0.00011241    0.00003770
     atom   53 type  2   force =    -0.00001111   -0.00000019    0.00013323
     atom   54 type  2   force =     0.00001248    0.00000734    0.00012927

     Total force =     0.006958     Total SCF correction =     0.000048


     Computing stress (Cartesian axis) and pressure

          total   stress  (Ry/bohr**3)                   (kbar)     P=       64.22
   0.00051099   0.00000029  -0.00000096           75.17        0.04       -0.14
   0.00000029   0.00051098  -0.00000001            0.04       75.17       -0.00
  -0.00000096  -0.00000001   0.00028777           -0.14       -0.00       42.33


     Writing all to output data dir ./WSe.save/ :
     XML data file, charge density, pseudopotentials, collected wavefunctions
 
     init_run     :      9.40s CPU     11.35s WALL (       1 calls)
     electrons    :    699.78s CPU    860.01s WALL (       1 calls)
     forces       :      7.06s CPU      7.62s WALL (       1 calls)
     force_london :      0.04s CPU      0.04s WALL (       1 calls)
     stress       :    102.95s CPU    109.95s WALL (       1 calls)
     stres_london :      0.04s CPU      0.04s WALL (       1 calls)

     Called by init_run:
     wfcinit      :      8.82s CPU     10.66s WALL (       1 calls)
     potinit      :      0.07s CPU      0.09s WALL (       1 calls)
     hinit0       :      0.17s CPU      0.20s WALL (       1 calls)

     Called by electrons:
     c_bands      :    658.98s CPU    810.82s WALL (      25 calls)
     sum_band     :     38.84s CPU     46.27s WALL (      25 calls)
     v_of_rho     :      1.32s CPU      1.52s WALL (      25 calls)
     mix_rho      :      0.51s CPU      0.58s WALL (      25 calls)
     energy_londo :      0.05s CPU      0.05s WALL (       1 calls)

     Called by c_bands:
     init_us_2    :      8.40s CPU      8.47s WALL (     159 calls)
     init_us_2:cp :      8.39s CPU      8.46s WALL (     159 calls)
     cegterg      :    629.38s CPU    769.93s WALL (      75 calls)

     Called by *egterg:
     cdiaghg      :     45.61s CPU    115.23s WALL (     447 calls)
     h_psi        :    366.81s CPU    406.51s WALL (     453 calls)
     g_psi        :      1.42s CPU      1.49s WALL (     375 calls)

     Called by h_psi:
     h_psi:calbec :     94.21s CPU    102.65s WALL (     453 calls)
     vloc_psi     :    186.17s CPU    216.57s WALL (     453 calls)
     add_vuspsi   :     82.52s CPU     83.01s WALL (     453 calls)

     General routines
     calbec       :    101.67s CPU    114.09s WALL (     468 calls)
     fft          :      0.94s CPU      1.10s WALL (     275 calls)
     ffts         :      0.06s CPU      0.08s WALL (      25 calls)
     fftw         :    200.39s CPU    233.69s WALL (  194910 calls)
 
     Parallel routines
     fft_scatt_xy :     19.99s CPU     22.86s WALL (  195210 calls)
     fft_scatt_yz :    114.72s CPU    136.35s WALL (  195210 calls)
 
     PWSCF        :  13m40.98s CPU  16m47.21s WALL

 
   This run was terminated on:  18: 1: 7   5Nov2024            

=------------------------------------------------------------------------------=
   JOB DONE.
=------------------------------------------------------------------------------=
