54   
3    

1    
  0.0123263299851592   0.0000000000000000   0.0157499710824168
  -0.0046853296    0.0000149393   -0.0068750604
   0.0001095504   -0.0002020407   -0.0002333404
   0.0001110304    0.0002003893   -0.0002347204
   0.0000655404   -0.0002256507   -0.0002364104
   0.0000672704    0.0002270193   -0.0002317304
   0.0000548904   -0.0000001907    0.0000285596
   0.0000675204    0.0001739193   -0.0002356504
   0.0000544204   -0.0000001007    0.0000285696
   0.0000658304   -0.0001775707   -0.0002324304
   0.0000001204    0.0000018193   -0.0000000304
  -0.0000002496   -0.0000002207    0.0000028996
   0.0000000904   -0.0000019907   -0.0000002604
   0.0000034504    0.0000003793   -0.0000001404
   0.0000001104    0.0000022393    0.0000092996
   0.0000002604   -0.0000015807    0.0000093496
   0.0000025904    0.0000015193    0.0000028496
   0.0000024604   -0.0000017007    0.0000029296
  -0.0000030196   -0.0000000007    0.0000092996
   0.0000038504   -0.0000000007    0.0006639296
   0.0000002704    0.0000052393    0.0006917096
   0.0000017004    0.0000020293    0.0006895896
  -0.0000010396   -0.0000023107    0.0006925596
   0.0000044604   -0.0000023507    0.0006888196
  -0.0000018696    0.0000000993    0.0006836096
  -0.0000034696   -0.0000016107    0.0006937196
  -0.0000004196   -0.0000002707    0.0006877596
   0.0000034704   -0.0000012507    0.0006878596
   0.0017495504   -0.0008428907    0.0012813196
   0.0000084504   -0.0000031507   -0.0006308604
   0.0000795404   -0.0001216807   -0.0001230604
   0.0002904204    0.0009583393    0.0005722996
   0.0000472604    0.0000738593   -0.0006152604
  -0.0000329896   -0.0000266307   -0.0006384204
   0.0000093304    0.0000006293   -0.0006457804
   0.0000035804    0.0000024693   -0.0006166604
  -0.0000796696   -0.0000464407   -0.0006268904
   0.0000765804    0.0001239293    0.0012554296
   0.0000072304    0.0000036893    0.0007465496
   0.0016762004    0.0007994093    0.0025893096
   0.0002918604   -0.0009289607    0.0019287396
  -0.0000345796    0.0000272393    0.0007395096
   0.0000460204   -0.0000728507    0.0007623796
   0.0000026604   -0.0000025407    0.0007626596
   0.0000087504   -0.0000011807    0.0007311796
  -0.0000806996    0.0000464093    0.0007510396
   0.0000036504    0.0000000393   -0.0007136604
   0.0000016604   -0.0000021007   -0.0006877404
   0.0000004904   -0.0000053407   -0.0006854304
   0.0000047304    0.0000023893   -0.0006884204
  -0.0000012096    0.0000025293   -0.0006847804
  -0.0000018796    0.0000000493   -0.0006936904
   0.0000035404    0.0000009293   -0.0006896804
  -0.0000003796   -0.0000002407   -0.0006898604
  -0.0000035896    0.0000013493   -0.0006837604

19   
  0.0123263299851592   0.0000000000000000   0.0157499710824168
   0.0000034502    0.0000001596   -0.0000244706
  -0.0000002198   -0.0000039204    0.0000027694
   0.0000022402   -0.0000029504    0.0000018394
   0.0000035102    0.0000013096   -0.0000003706
  -0.0000038398   -0.0000005104    0.0000049694
  -0.0000002698   -0.0000001904   -0.0000007706
   0.0000041002    0.0000014496    0.0000000494
  -0.0000017998   -0.0000000604   -0.0000047906
  -0.0000008298    0.0000040196    0.0000045494
   0.0018102802   -0.0008765904    0.0019286394
   0.0000081102    0.0000225196    0.0000583294
   0.0000223802   -0.0001550304    0.0006078994
   0.0002914602    0.0010235396    0.0012601494
   0.0000208702    0.0000591596    0.0000941994
  -0.0000087198   -0.0000415204    0.0000304494
  -0.0000133698   -0.0000123004    0.0000608594
   0.0000257102   -0.0000102104    0.0000556294
  -0.0000810198   -0.0000171604    0.0000621494
  -0.0024629798    0.0000102796   -0.0035350806
   0.0001453102   -0.0000010904    0.0006088994
   0.0002068702    0.0000104196    0.0005612894
   0.0000352902   -0.0001227304    0.0005702594
   0.0000116502    0.0000645696    0.0005998794
  -0.0000053998   -0.0000005604    0.0006863694
   0.0000046002   -0.0000579104    0.0005939394
  -0.0000054998   -0.0000006004    0.0006864894
   0.0000424902    0.0001069996    0.0005759094
  -0.0000198398    0.0000104196   -0.0006672306
   0.0000011402   -0.0000013304   -0.0006897906
   0.0000394502    0.0000243896   -0.0006214406
  -0.0000022598   -0.0000342904   -0.0006443906
  -0.0000022898    0.0000000496   -0.0006939806
   0.0000016802   -0.0000022504   -0.0006906106
   0.0000019602    0.0000002096   -0.0006886306
  -0.0000009398    0.0000009396   -0.0006906706
  -0.0000022998    0.0000019996   -0.0006920306
   0.0000000302    0.0000003096    0.0006900694
  -0.0000011198    0.0000002996    0.0006907494
  -0.0000000098    0.0000002496    0.0006898394
   0.0000000802    0.0000000696    0.0006900894
   0.0000010102    0.0000008896    0.0006889894
  -0.0000014398    0.0000006096    0.0006905994
  -0.0000003398    0.0000002296    0.0006907394
  -0.0000003398   -0.0000006704    0.0006905694
  -0.0000004798   -0.0000016304    0.0006895694
  -0.0000505898   -0.0000000304   -0.0000882406
   0.0000709002    0.0000604396   -0.0006545506
  -0.0000054298    0.0000060196   -0.0007146406
  -0.0000710698    0.0000121796   -0.0006774006
   0.0000247102    0.0000215496   -0.0006925306
   0.0000044302   -0.0000004404   -0.0007129906
  -0.0000319898   -0.0001099904   -0.0006469306
   0.0000044402   -0.0000006204   -0.0007130406
  -0.0000137698    0.0000093096   -0.0007221506

19   
 -0.0123263299851592   0.0000000000000000  -0.0157499710824168
  -0.0000037900   -0.0000001302    0.0000244102
   0.0000003300    0.0000040298   -0.0000030898
  -0.0000027400    0.0000031098   -0.0000020998
  -0.0000040700   -0.0000019002    0.0000002002
   0.0000040500    0.0000003698   -0.0000053498
   0.0000001500   -0.0000000802    0.0000005602
  -0.0000043700   -0.0000018902   -0.0000003498
   0.0000018800   -0.0000000002    0.0000045102
   0.0000005800   -0.0000044302   -0.0000048998
  -0.0017304700    0.0008316798   -0.0018523898
  -0.0000074300   -0.0000217002   -0.0000575798
  -0.0000189200    0.0001572198   -0.0006142198
  -0.0002908300   -0.0009967202   -0.0012410798
  -0.0000212500   -0.0000586902   -0.0000928898
   0.0000081700    0.0000417698   -0.0000310798
   0.0000128300    0.0000117898   -0.0000596798
  -0.0000252300    0.0000103598   -0.0000554598
   0.0000801300    0.0000170998   -0.0000621098
   0.0023865800    0.0000097498    0.0048238702
  -0.0001448300    0.0000009798    0.0007669302
  -0.0002076800   -0.0000092302    0.0008166502
  -0.0000357500    0.0001214198    0.0008066802
  -0.0000125300   -0.0000643102    0.0007760902
   0.0000058200   -0.0000004802    0.0006908602
  -0.0000049900    0.0000581598    0.0007817202
   0.0000059200    0.0000000698    0.0006907002
  -0.0000431600   -0.0001072402    0.0008008902
   0.0000203200   -0.0000100902   -0.0007105698
  -0.0000009400    0.0000016298   -0.0006885398
  -0.0000415100   -0.0000253102   -0.0007599198
   0.0000024300    0.0000354398   -0.0007350298
   0.0000028500    0.0000000398   -0.0006843698
  -0.0000020400    0.0000022398   -0.0006878698
  -0.0000016100   -0.0000003302   -0.0006893198
   0.0000008700   -0.0000009302   -0.0006872498
   0.0000022100   -0.0000026602   -0.0006858698
   0.0000002300    0.0000001298    0.0006879602
   0.0000013400    0.0000000898    0.0006876702
  -0.0000003100   -0.0000000102    0.0006883402
  -0.0000001900    0.0000000998    0.0006880302
  -0.0000004000   -0.0000008602    0.0006894102
   0.0000010200   -0.0000006002    0.0006878902
   0.0000006300   -0.0000002902    0.0006873402
   0.0000003300    0.0000007498    0.0006874502
   0.0000004300    0.0000010098    0.0006884402
   0.0000496600    0.0000000198   -0.0012802498
  -0.0000706400   -0.0000605202   -0.0007223598
   0.0000058000   -0.0000056902   -0.0006631298
   0.0000698400   -0.0000123502   -0.0007002498
  -0.0000256900   -0.0000212102   -0.0006852798
  -0.0000039400   -0.0000004302   -0.0006647298
   0.0000320100    0.0001081198   -0.0007295098
  -0.0000040700    0.0000000698   -0.0006646498
   0.0000129700   -0.0000093602   -0.0006554298
