
     Program PWSCF v.7.3 starts on  5Nov2024 at 17:50:47 

     This program is part of the open-source Quantum ESPRESSO suite
     for quantum simulation of materials; please cite
         "P. Giannozzi et al., J. Phys.:Condens. Matter 21 395502 (2009);
         "P. Giannozzi et al., J. Phys.:Condens. Matter 29 465901 (2017);
         "P. Giannozzi et al., J. Chem. Phys. 152 154105 (2020);
          URL http://www.quantum-espresso.org", 
     in publications or presentations arising from this work. More details at
     http://www.quantum-espresso.org/quote

     Parallel version (MPI & OpenMP), running on     256 processor cores
     Number of MPI processes:               256
     Threads/MPI process:                     1

     MPI processes distributed on     1 nodes
     482044 MiB available memory on the printing compute node when the environment starts
 
     Waiting for input...
     Reading input from standard input

     Current dimensions of program PWSCF are:
     Max number of different atomic species (ntypx) = 10
     Max number of k-points (npk) =  40000
     Max angular momentum in pseudopotentials (lmaxx) =  4
 
     K-points division:     npool     =       4
     R & G space division:  proc/nbgrp/npool/nimage =      64
     Subspace diagonalization in iterative solution of the eigenvalue problem:
     one sub-group per band group will be used
     scalapack distributed-memory algorithm (size of sub-group:  4*  4 procs)

 
     Parallelization info
     --------------------
     sticks:   dense  smooth     PW     G-vecs:    dense   smooth      PW
     Min         130     130     33                12298    12298    1625
     Max         131     131     34                12305    12305    1630
     Sum        8353    8353   2173               787269   787269  104197
 
     Using Pencil Decomposition
 


     bravais-lattice index     =            0
     lattice parameter (alat)  =      19.4500  a.u.
     unit-cell volume          =    8142.1067 (a.u.)^3
     number of atoms/cell      =           54
     number of atomic types    =            2
     number of electrons       =       828.00
     number of Kohn-Sham states=          414
     kinetic-energy cutoff     =      80.0000  Ry
     charge density cutoff     =     320.0000  Ry
     scf convergence threshold =      1.0E-10
     mixing beta               =       0.5000
     number of iterations used =            8  plain     mixing
     Exchange-correlation= PBE
                           (   1   4   3   4   0   0   0)

     celldm(1)=  19.450020  celldm(2)=   0.000000  celldm(3)=   0.000000
     celldm(4)=   0.000000  celldm(5)=   0.000000  celldm(6)=   0.000000

     crystal axes: (cart. coord. in units of alat)
               a(1) = (   1.000000   0.000000   0.000000 )  
               a(2) = (  -0.500000   0.866025   0.000000 )  
               a(3) = (   0.000000   0.000000   1.277750 )  

     reciprocal axes: (cart. coord. in units 2 pi/alat)
               b(1) = (  1.000000  0.577350  0.000000 )  
               b(2) = (  0.000000  1.154701  0.000000 )  
               b(3) = (  0.000000  0.000000  0.782626 )  


     PseudoPot. # 1 for W  read from file:
     /users/rkarkee/pbe_pseudo/W.upf
     MD5 check sum: cb94e439a9e4ea809831d6e90c63864e
     Pseudo is Norm-conserving + core correction, Zval = 14.0
     Generated using ONCVPSP code by D. R. Hamann
     Using radial grid of 1396 points,  8 beta functions with: 
                l(1) =   0
                l(2) =   0
                l(3) =   1
                l(4) =   1
                l(5) =   2
                l(6) =   2
                l(7) =   3
                l(8) =   3

     PseudoPot. # 2 for Se read from file:
     /users/rkarkee/pbe_pseudo/Se.upf
     MD5 check sum: 3cc46b3642295b3f4fdae63b742ce36d
     Pseudo is Norm-conserving + core correction, Zval = 16.0
     Generated using ONCVPSP code by D. R. Hamann
     Using radial grid of 1214 points,  6 beta functions with: 
                l(1) =   0
                l(2) =   0
                l(3) =   1
                l(4) =   1
                l(5) =   2
                l(6) =   2

     atomic species   valence    mass     pseudopotential
     W                14.00   183.84000     W ( 1.00)
     Se               16.00    78.96000     Se( 1.00)

     No symmetry found



   Cartesian axes

     site n.     atom                  positions (alat units)
         1        W      tau(   1) = (  -0.0000000   0.1924501   0.9583127  )
         2        W      tau(   2) = (   0.3333333   0.1924501   0.9583127  )
         3        W      tau(   3) = (   0.6666667   0.1924501   0.9583127  )
         4        W      tau(   4) = (  -0.1666667   0.4811252   0.9583127  )
         5        W      tau(   5) = (   0.1666667   0.4811252   0.9583127  )
         6        W      tau(   6) = (   0.5000000   0.4811252   0.9583127  )
         7        W      tau(   7) = (  -0.3333333   0.7698004   0.9583127  )
         8        W      tau(   8) = (   0.0000000   0.7698004   0.9583127  )
         9        W      tau(   9) = (   0.3333333   0.7698004   0.9583127  )
        10        W      tau(  10) = (   0.1666667   0.0962250   0.3194376  )
        11        W      tau(  11) = (   0.5000000   0.0962250   0.3194376  )
        12        W      tau(  12) = (   0.8333333   0.0962250   0.3194376  )
        13        W      tau(  13) = (  -0.0000000   0.3849002   0.3194376  )
        14        W      tau(  14) = (   0.3333333   0.3849002   0.3194376  )
        15        W      tau(  15) = (   0.6666667   0.3849002   0.3194376  )
        16        W      tau(  16) = (  -0.1666667   0.6735753   0.3194376  )
        17        W      tau(  17) = (   0.1666667   0.6735753   0.3194376  )
        18        W      tau(  18) = (   0.5000000   0.6735753   0.3194376  )
        19        Se     tau(  19) = (  -0.0006337   0.1924501   0.1592385  )
        20        Se     tau(  20) = (   0.3333333   0.1924501   0.1600483  )
        21        Se     tau(  21) = (   0.6666667   0.1924501   0.1600483  )
        22        Se     tau(  22) = (  -0.1666667   0.4811252   0.1600483  )
        23        Se     tau(  23) = (   0.1666667   0.4811252   0.1600483  )
        24        Se     tau(  24) = (   0.5000000   0.4811252   0.1600483  )
        25        Se     tau(  25) = (  -0.3333333   0.7698004   0.1600483  )
        26        Se     tau(  26) = (   0.0000000   0.7698004   0.1600483  )
        27        Se     tau(  27) = (   0.3333333   0.7698004   0.1600483  )
        28        Se     tau(  28) = (   0.1666667   0.0962250   1.1177020  )
        29        Se     tau(  29) = (   0.5000000   0.0962250   1.1177020  )
        30        Se     tau(  30) = (   0.8333333   0.0962250   1.1177020  )
        31        Se     tau(  31) = (  -0.0000000   0.3849002   1.1177020  )
        32        Se     tau(  32) = (   0.3333333   0.3849002   1.1177020  )
        33        Se     tau(  33) = (   0.6666667   0.3849002   1.1177020  )
        34        Se     tau(  34) = (  -0.1666667   0.6735753   1.1177020  )
        35        Se     tau(  35) = (   0.1666667   0.6735753   1.1177020  )
        36        Se     tau(  36) = (   0.5000000   0.6735753   1.1177020  )
        37        Se     tau(  37) = (   0.1666667   0.0962250   0.7989234  )
        38        Se     tau(  38) = (   0.5000000   0.0962250   0.7989234  )
        39        Se     tau(  39) = (   0.8333333   0.0962250   0.7989234  )
        40        Se     tau(  40) = (  -0.0000000   0.3849002   0.7989234  )
        41        Se     tau(  41) = (   0.3333333   0.3849002   0.7989234  )
        42        Se     tau(  42) = (   0.6666667   0.3849002   0.7989234  )
        43        Se     tau(  43) = (  -0.1666667   0.6735753   0.7989234  )
        44        Se     tau(  44) = (   0.1666667   0.6735753   0.7989234  )
        45        Se     tau(  45) = (   0.5000000   0.6735753   0.7989234  )
        46        Se     tau(  46) = (  -0.0000000   0.1924501   0.4788269  )
        47        Se     tau(  47) = (   0.3333333   0.1924501   0.4788269  )
        48        Se     tau(  48) = (   0.6666667   0.1924501   0.4788269  )
        49        Se     tau(  49) = (  -0.1666667   0.4811252   0.4788269  )
        50        Se     tau(  50) = (   0.1666667   0.4811252   0.4788269  )
        51        Se     tau(  51) = (   0.5000000   0.4811252   0.4788269  )
        52        Se     tau(  52) = (  -0.3333333   0.7698004   0.4788269  )
        53        Se     tau(  53) = (   0.0000000   0.7698004   0.4788269  )
        54        Se     tau(  54) = (   0.3333333   0.7698004   0.4788269  )

     -------------------------------------------------
     Parameters for Dispersion (Grimme-D2) Correction:
     -------------------------------------------------
       atom      VdW radius       C_6     

        W          3.349       2818.308
        Se         3.347        438.498

     number of k points=    12
                       cart. coord. in units 2pi/alat
        k(    1) = (   0.2500000   0.4330127   0.1956564), wk =   0.1666667
        k(    2) = (   0.2500000  -0.1443376   0.1956564), wk =   0.1666667
        k(    3) = (  -0.2500000  -0.4330127   0.1956564), wk =   0.1666667
        k(    4) = (  -0.2500000   0.4330127  -0.1956564), wk =   0.1666667
        k(    5) = (   0.2500000  -0.4330127  -0.1956564), wk =   0.1666667
        k(    6) = (   0.5000000  -0.0000000   0.1956564), wk =   0.1666667
        k(    7) = (  -0.5000000   0.0000000   0.1956564), wk =   0.1666667
        k(    8) = (  -0.2500000   0.1443376   0.1956564), wk =   0.1666667
        k(    9) = (  -0.2500000  -0.1443376  -0.1956564), wk =   0.1666667
        k(   10) = (   0.2500000   0.1443376  -0.1956564), wk =   0.1666667
        k(   11) = (   0.0000000  -0.2886751   0.1956564), wk =   0.1666667
        k(   12) = (   0.0000000   0.2886751   0.1956564), wk =   0.1666667

     Dense  grid:   787269 G-vectors     FFT dimensions: ( 120, 120, 144)

     Estimated max dynamical RAM per process >     131.42 MB

     Estimated total dynamical RAM >      32.29 GB

     Initial potential from superposition of free atoms

     starting charge     827.9882, renormalised to     828.0000
     Starting wfcs are  504 randomized atomic wfcs

     total cpu time spent up to now is       13.6 secs

     Self-consistent Calculation

     iteration #  1     ecut=    80.00 Ry     beta= 0.50
     Davidson diagonalization with overlap
     ethr =  1.00E-02,  avg # of iterations =  2.0

     Threshold (ethr) on eigenvalues was too large:
     Diagonalizing with lowered threshold

     Davidson diagonalization with overlap
     ethr =  9.26E-05,  avg # of iterations =  5.5

     total cpu time spent up to now is       97.5 secs

     total energy              =  -11463.53147913 Ry
     estimated scf accuracy    <       1.05940681 Ry

     iteration #  2     ecut=    80.00 Ry     beta= 0.50
     Davidson diagonalization with overlap
     ethr =  1.28E-04,  avg # of iterations =  2.0

     total cpu time spent up to now is      132.9 secs

     total energy              =  -11463.66137153 Ry
     estimated scf accuracy    <       0.09836495 Ry

     iteration #  3     ecut=    80.00 Ry     beta= 0.50
     Davidson diagonalization with overlap
     ethr =  1.19E-05,  avg # of iterations =  5.0

     total cpu time spent up to now is      171.3 secs

     total energy              =  -11463.66572041 Ry
     estimated scf accuracy    <       0.02648413 Ry

     iteration #  4     ecut=    80.00 Ry     beta= 0.50
     Davidson diagonalization with overlap
     ethr =  3.20E-06,  avg # of iterations =  6.0

     total cpu time spent up to now is      219.8 secs

     total energy              =  -11463.67112803 Ry
     estimated scf accuracy    <       0.04886266 Ry

     iteration #  5     ecut=    80.00 Ry     beta= 0.50
     Davidson diagonalization with overlap
     ethr =  3.20E-06,  avg # of iterations =  5.0

     total cpu time spent up to now is      256.0 secs

     total energy              =  -11463.67352351 Ry
     estimated scf accuracy    <       0.00473111 Ry

     iteration #  6     ecut=    80.00 Ry     beta= 0.50
     Davidson diagonalization with overlap
     ethr =  5.71E-07,  avg # of iterations =  6.5

     total cpu time spent up to now is      307.3 secs

     total energy              =  -11463.67648337 Ry
     estimated scf accuracy    <       0.00742795 Ry

     iteration #  7     ecut=    80.00 Ry     beta= 0.50
     Davidson diagonalization with overlap
     ethr =  5.71E-07,  avg # of iterations =  3.0

     total cpu time spent up to now is      338.7 secs

     total energy              =  -11463.67545218 Ry
     estimated scf accuracy    <       0.00550783 Ry

     iteration #  8     ecut=    80.00 Ry     beta= 0.50
     Davidson diagonalization with overlap
     ethr =  5.71E-07,  avg # of iterations =  3.7

     total cpu time spent up to now is      372.9 secs

     total energy              =  -11463.67551743 Ry
     estimated scf accuracy    <       0.00114828 Ry

     iteration #  9     ecut=    80.00 Ry     beta= 0.50
     Davidson diagonalization with overlap
     ethr =  1.39E-07,  avg # of iterations =  6.0

     total cpu time spent up to now is      420.2 secs

     total energy              =  -11463.67586321 Ry
     estimated scf accuracy    <       0.00087584 Ry

     iteration # 10     ecut=    80.00 Ry     beta= 0.50
     Davidson diagonalization with overlap
     ethr =  1.06E-07,  avg # of iterations =  2.0

     total cpu time spent up to now is      452.2 secs

     total energy              =  -11463.67584993 Ry
     estimated scf accuracy    <       0.00022748 Ry

     iteration # 11     ecut=    80.00 Ry     beta= 0.50
     Davidson diagonalization with overlap
     ethr =  2.75E-08,  avg # of iterations =  6.0

     total cpu time spent up to now is      496.8 secs

     total energy              =  -11463.67590566 Ry
     estimated scf accuracy    <       0.00006430 Ry

     iteration # 12     ecut=    80.00 Ry     beta= 0.50
     Davidson diagonalization with overlap
     ethr =  7.77E-09,  avg # of iterations =  2.3

     total cpu time spent up to now is      526.5 secs

     total energy              =  -11463.67590008 Ry
     estimated scf accuracy    <       0.00003289 Ry

     iteration # 13     ecut=    80.00 Ry     beta= 0.50
     Davidson diagonalization with overlap
     ethr =  3.97E-09,  avg # of iterations =  7.0

     total cpu time spent up to now is      569.2 secs

     total energy              =  -11463.67590818 Ry
     estimated scf accuracy    <       0.00001265 Ry

     iteration # 14     ecut=    80.00 Ry     beta= 0.50
     Davidson diagonalization with overlap
     ethr =  1.53E-09,  avg # of iterations =  2.0

     total cpu time spent up to now is      598.7 secs

     total energy              =  -11463.67590638 Ry
     estimated scf accuracy    <       0.00001036 Ry

     iteration # 15     ecut=    80.00 Ry     beta= 0.50
     Davidson diagonalization with overlap
     ethr =  1.25E-09,  avg # of iterations =  6.6

     total cpu time spent up to now is      635.8 secs

     total energy              =  -11463.67590736 Ry
     estimated scf accuracy    <       0.00000116 Ry

     iteration # 16     ecut=    80.00 Ry     beta= 0.50
     Davidson diagonalization with overlap
     ethr =  1.41E-10,  avg # of iterations =  6.0

     total cpu time spent up to now is      678.3 secs

     total energy              =  -11463.67590751 Ry
     estimated scf accuracy    <       0.00000044 Ry

     iteration # 17     ecut=    80.00 Ry     beta= 0.50
     Davidson diagonalization with overlap
     ethr =  5.33E-11,  avg # of iterations =  3.3

     total cpu time spent up to now is      710.7 secs

     total energy              =  -11463.67590751 Ry
     estimated scf accuracy    <       0.00000013 Ry

     iteration # 18     ecut=    80.00 Ry     beta= 0.50
     Davidson diagonalization with overlap
     ethr =  1.58E-11,  avg # of iterations =  6.5

     total cpu time spent up to now is      756.6 secs

     total energy              =  -11463.67590754 Ry
     estimated scf accuracy    <       0.00000006 Ry

     iteration # 19     ecut=    80.00 Ry     beta= 0.50
     Davidson diagonalization with overlap
     ethr =  7.31E-12,  avg # of iterations =  3.0

     total cpu time spent up to now is      786.5 secs

     total energy              =  -11463.67590754 Ry
     estimated scf accuracy    <       0.00000004 Ry

     iteration # 20     ecut=    80.00 Ry     beta= 0.50
     Davidson diagonalization with overlap
     ethr =  4.91E-12,  avg # of iterations =  7.4

     total cpu time spent up to now is      826.5 secs

     total energy              =  -11463.67590754 Ry
     estimated scf accuracy    <       0.00000002 Ry

     iteration # 21     ecut=    80.00 Ry     beta= 0.50
     Davidson diagonalization with overlap
     ethr =  2.46E-12,  avg # of iterations =  6.5

     total cpu time spent up to now is      863.7 secs

     total energy              =  -11463.67590754 Ry
     estimated scf accuracy    <       0.00000001 Ry

     iteration # 22     ecut=    80.00 Ry     beta= 0.50
     Davidson diagonalization with overlap
     ethr =  1.39E-12,  avg # of iterations =  6.6

     total cpu time spent up to now is      901.7 secs

     total energy              =  -11463.67590754 Ry
     estimated scf accuracy    <          3.5E-09 Ry

     iteration # 23     ecut=    80.00 Ry     beta= 0.50
     Davidson diagonalization with overlap
     ethr =  4.19E-13,  avg # of iterations =  6.4

     total cpu time spent up to now is      940.5 secs

     total energy              =  -11463.67590754 Ry
     estimated scf accuracy    <          1.3E-09 Ry

     iteration # 24     ecut=    80.00 Ry     beta= 0.50
     Davidson diagonalization with overlap
     ethr =  1.54E-13,  avg # of iterations =  7.5

     total cpu time spent up to now is      987.0 secs

     total energy              =  -11463.67590754 Ry
     estimated scf accuracy    <          2.4E-09 Ry

     iteration # 25     ecut=    80.00 Ry     beta= 0.50
     Davidson diagonalization with overlap
     ethr =  1.54E-13,  avg # of iterations =  7.0

     total cpu time spent up to now is     1027.3 secs

     total energy              =  -11463.67590754 Ry
     estimated scf accuracy    <          2.1E-10 Ry

     iteration # 26     ecut=    80.00 Ry     beta= 0.50
     Davidson diagonalization with overlap
     ethr =  1.00E-13,  avg # of iterations =  2.0

     total cpu time spent up to now is     1056.3 secs

     End of self-consistent calculation

          k = 0.2500 0.4330 0.1957 ( 98374 PWs)   bands (ev):

   -62.8120 -62.8117 -62.8106 -62.8105 -62.8105 -62.8103 -62.8087 -62.8082
   -62.8082 -62.8080 -62.8075 -62.8074 -62.8074 -62.8074 -62.8071 -62.8071
   -62.8067 -62.8066 -36.1988 -36.1987 -36.1987 -36.1986 -36.1985 -36.1985
   -36.1985 -36.1985 -36.1985 -36.1984 -36.1984 -36.1984 -36.1983 -36.1983
   -36.1982 -36.1982 -36.1982 -36.1981 -36.1981 -36.1980 -36.1980 -36.1980
   -36.1980 -36.1980 -36.1979 -36.1979 -36.1979 -36.1978 -36.1978 -36.1977
   -36.1977 -36.1977 -36.1977 -36.1976 -36.1976 -36.1975 -36.1975 -36.1974
   -36.1974 -36.1974 -36.1973 -36.1972 -36.1972 -36.1970 -36.1970 -36.1968
   -36.1968 -36.1968 -36.1967 -36.1966 -36.1966 -36.1966 -36.1965 -36.1965
   -36.1964 -36.1963 -36.1962 -36.1962 -36.1962 -36.1961 -36.1960 -36.1960
   -36.1960 -36.1960 -36.1959 -36.1958 -36.1957 -36.1956 -36.1954 -36.1954
   -36.1930 -36.1929 -36.1563 -36.1562 -36.1560 -36.1560 -36.1560 -36.1559
   -36.1558 -36.1558 -36.1557 -36.1556 -36.1556 -36.1556 -36.1556 -36.1555
   -36.1555 -36.1555 -36.1554 -36.1554 -36.1554 -36.1553 -36.1553 -36.1553
   -36.1553 -36.1553 -36.1552 -36.1552 -36.1552 -36.1552 -36.1551 -36.1551
   -36.1551 -36.1551 -36.1551 -36.1550 -36.1550 -36.1549 -36.1549 -36.1548
   -36.1547 -36.1547 -36.1547 -36.1547 -36.1546 -36.1546 -36.1546 -36.1545
   -36.1545 -36.1545 -36.1545 -36.1545 -36.1544 -36.1544 -36.1543 -36.1543
   -36.1543 -36.1543 -36.1542 -36.1541 -36.1541 -36.1541 -36.1540 -36.1539
   -36.1539 -36.1538 -36.1537 -36.1537 -36.1537 -36.1536 -36.1535 -36.1534
   -36.1518 -36.1515 -36.1388 -36.1386 -36.1385 -36.1383 -36.1381 -36.1381
   -36.1380 -36.1379 -36.1379 -36.1378 -36.1378 -36.1378 -36.1377 -36.1375
   -36.1374 -36.1373 -36.1372 -36.1369 -36.1361 -36.1359 -36.1358 -36.1355
   -36.1353 -36.1353 -36.1353 -36.1351 -36.1351 -36.1351 -36.1350 -36.1350
   -36.1348 -36.1346 -36.1346 -36.1344 -36.1344 -36.1333 -27.0840 -27.0840
   -27.0837 -27.0835 -27.0775 -27.0771 -27.0625 -27.0621 -27.0533 -27.0533
   -27.0529 -27.0527 -27.0047 -27.0043 -27.0015 -27.0015 -27.0012 -27.0010
   -27.0000 -26.9996 -26.9854 -26.9854 -26.9851 -26.9849 -26.9829 -26.9829
   -26.9825 -26.9824 -26.9709 -26.9705 -26.9589 -26.9589 -26.9585 -26.9584
   -26.9571 -26.9569 -26.9506 -26.9506 -26.9506 -26.9501 -26.9501 -26.9497
   -26.9377 -26.9376 -26.9375 -26.9371 -26.9331 -26.9328 -26.9328 -26.9328
   -26.9325 -26.9321 -26.9310 -26.9307  -2.8509  -2.7321  -2.5383  -2.5369
    -2.4252  -2.4235  -1.8098  -1.8086  -1.7511  -1.7242  -1.7228  -1.5973
    -1.5968  -1.5592  -1.4963  -1.4741  -1.4727  -1.4352  -1.4277  -1.4271
    -1.4200  -1.4183  -1.3582  -1.3180  -1.2429  -1.2423  -1.1360  -1.1353
    -1.0896  -1.0889  -1.0884  -1.0302  -1.0298  -1.0260  -1.0190  -0.9838
     5.4610   5.4619   5.5757   5.6111   5.6121   5.6782   5.8122   5.9623
     5.9631   6.0978   6.1392   6.1837   6.1909   6.1918   6.3018   6.3027
     6.5293   6.5363   6.5374   6.5656   6.6488   6.6497   6.6893   6.6898
     6.6979   6.7879   6.9394   6.9402   7.0908   7.0914   7.2140   7.2151
     7.2719   7.2725   7.2736   7.3063   7.3809   7.3810   7.4019   7.4023
     7.4251   7.4253   7.4413   7.5864   7.5943   7.5959   8.0442   8.0861
     8.1074   8.1136   8.1144   8.1274   8.1282   8.2059   8.2257   8.3132
     8.3140   8.3350   8.3506   8.3515   8.4031   8.4246   8.4254   8.4398
     8.4839   8.4841   8.5214   8.6262   8.7909   8.8630   8.8641   8.9271
     8.9281   8.9827   8.9837   9.0069   9.0083   9.0738   9.0902   9.1088
     9.2946   9.2951   9.3241   9.3246   9.3826   9.4115   9.4429   9.4650
     9.4661   9.5008   9.5017   9.6119   9.6144   9.6350   9.6353   9.6742
     9.6746   9.7484   9.8828   9.8839   9.9579   9.9589  10.0481  10.0499
    10.0751  10.4562  10.4574  10.5743  10.6454  10.6460  10.6699  10.6706
    10.6713  10.6723  10.7925  10.7933  10.8328  10.8353  10.8362  10.8505
    10.8514  10.8786  10.9072  11.0400  11.1882  11.3191

          k = 0.2500-0.1443 0.1957 ( 98372 PWs)   bands (ev):

   -62.8125 -62.8123 -62.8104 -62.8100 -62.8093 -62.8092 -62.8092 -62.8090
   -62.8082 -62.8081 -62.8081 -62.8078 -62.8077 -62.8073 -62.8069 -62.8069
   -62.8066 -62.8065 -36.1989 -36.1988 -36.1987 -36.1987 -36.1987 -36.1986
   -36.1986 -36.1986 -36.1986 -36.1985 -36.1985 -36.1984 -36.1983 -36.1983
   -36.1983 -36.1982 -36.1982 -36.1982 -36.1982 -36.1981 -36.1981 -36.1981
   -36.1981 -36.1980 -36.1980 -36.1980 -36.1979 -36.1978 -36.1978 -36.1978
   -36.1977 -36.1976 -36.1975 -36.1975 -36.1974 -36.1973 -36.1973 -36.1973
   -36.1971 -36.1971 -36.1971 -36.1971 -36.1969 -36.1968 -36.1968 -36.1968
   -36.1967 -36.1966 -36.1966 -36.1965 -36.1965 -36.1965 -36.1965 -36.1965
   -36.1964 -36.1964 -36.1963 -36.1963 -36.1963 -36.1962 -36.1961 -36.1960
   -36.1960 -36.1960 -36.1960 -36.1959 -36.1958 -36.1957 -36.1956 -36.1954
   -36.1930 -36.1929 -36.1564 -36.1564 -36.1560 -36.1559 -36.1559 -36.1559
   -36.1558 -36.1557 -36.1557 -36.1556 -36.1556 -36.1555 -36.1555 -36.1555
   -36.1555 -36.1554 -36.1554 -36.1554 -36.1554 -36.1554 -36.1553 -36.1553
   -36.1553 -36.1553 -36.1553 -36.1552 -36.1552 -36.1552 -36.1552 -36.1551
   -36.1550 -36.1550 -36.1550 -36.1549 -36.1549 -36.1549 -36.1549 -36.1549
   -36.1548 -36.1548 -36.1547 -36.1547 -36.1547 -36.1546 -36.1546 -36.1546
   -36.1546 -36.1545 -36.1545 -36.1544 -36.1544 -36.1543 -36.1543 -36.1543
   -36.1543 -36.1542 -36.1542 -36.1542 -36.1541 -36.1541 -36.1540 -36.1540
   -36.1539 -36.1538 -36.1537 -36.1536 -36.1536 -36.1536 -36.1535 -36.1534
   -36.1518 -36.1515 -36.1389 -36.1385 -36.1384 -36.1383 -36.1382 -36.1380
   -36.1380 -36.1380 -36.1379 -36.1379 -36.1378 -36.1377 -36.1377 -36.1376
   -36.1374 -36.1373 -36.1372 -36.1369 -36.1363 -36.1357 -36.1357 -36.1356
   -36.1355 -36.1353 -36.1353 -36.1352 -36.1351 -36.1351 -36.1350 -36.1350
   -36.1349 -36.1347 -36.1346 -36.1344 -36.1344 -36.1333 -27.0796 -27.0792
   -27.0667 -27.0667 -27.0664 -27.0661 -27.0646 -27.0646 -27.0644 -27.0640
   -27.0366 -27.0365 -27.0363 -27.0360 -27.0191 -27.0191 -27.0187 -27.0186
   -27.0167 -27.0162 -26.9778 -26.9778 -26.9775 -26.9774 -26.9752 -26.9748
   -26.9690 -26.9690 -26.9687 -26.9686 -26.9608 -26.9606 -26.9603 -26.9599
   -26.9529 -26.9525 -26.9478 -26.9476 -26.9453 -26.9449 -26.9431 -26.9430
   -26.9429 -26.9428 -26.9365 -26.9365 -26.9364 -26.9363 -26.9348 -26.9345
   -26.9300 -26.9300 -26.9298 -26.9297  -3.0203  -2.8995  -2.3954  -2.2857
    -2.1360  -2.1346  -2.0349  -2.0333  -1.8348  -1.7375  -1.7361  -1.6577
    -1.6562  -1.6318  -1.6129  -1.5442  -1.5280  -1.4019  -1.4016  -1.3694
    -1.2954  -1.2942  -1.2649  -1.2646  -1.2639  -1.2621  -1.2123  -1.2119
    -1.1566  -1.1156  -1.1151  -1.0775  -0.9890  -0.9885  -0.9550  -0.9543
     5.3570   5.5257   5.6804   5.8259   5.8264   5.9754   5.9774   5.9778
     6.0697   6.0705   6.0953   6.1440   6.1448   6.2576   6.2582   6.4171
     6.4177   6.5103   6.5112   6.5519   6.5525   6.5951   6.7634   6.7924
     6.7934   6.8180   6.8889   6.8890   6.9358   6.9361   7.0829   7.0830
     7.0865   7.1923   7.1964   7.2114   7.2118   7.3706   7.3710   7.5176
     7.5184   7.5242   7.5256   7.5725   7.6295   7.6300   7.7476   7.7479
     7.8015   7.8022   7.8674   7.9589   7.9596   8.1435   8.2536   8.2548
     8.3628   8.3643   8.4087   8.4101   8.4111   8.4626   8.4637   8.4663
     8.5194   8.5200   8.5564   8.5742   8.6668   8.6683   8.7856   8.9273
     8.9426   8.9777   9.0260   9.3719   9.3726   9.4461   9.4469   9.4588
     9.4616   9.4624   9.4797   9.4918   9.4931   9.5153   9.5201   9.5206
     9.5262   9.5374   9.5381   9.6447   9.6454   9.6831   9.7244   9.7479
     9.7836   9.8319   9.8326   9.8406   9.8414   9.9854  10.0139  10.1235
    10.1274  10.1276  10.2221  10.3387  10.4900  10.4923  10.5151  10.5154
    10.5308  10.5313  10.5810  10.5814  10.6101  10.6105  10.6268  10.6893
    11.0768  11.0770  11.1803  11.1805  11.3661  11.6368

          k =-0.2500-0.4330 0.1957 ( 98374 PWs)   bands (ev):

   -62.8120 -62.8117 -62.8106 -62.8105 -62.8105 -62.8103 -62.8087 -62.8082
   -62.8082 -62.8080 -62.8075 -62.8074 -62.8074 -62.8074 -62.8071 -62.8071
   -62.8067 -62.8066 -36.1988 -36.1987 -36.1987 -36.1986 -36.1985 -36.1985
   -36.1985 -36.1985 -36.1985 -36.1984 -36.1984 -36.1984 -36.1983 -36.1983
   -36.1982 -36.1982 -36.1982 -36.1981 -36.1981 -36.1980 -36.1980 -36.1980
   -36.1980 -36.1980 -36.1979 -36.1979 -36.1979 -36.1978 -36.1978 -36.1977
   -36.1977 -36.1977 -36.1977 -36.1976 -36.1976 -36.1975 -36.1975 -36.1974
   -36.1974 -36.1974 -36.1973 -36.1972 -36.1972 -36.1970 -36.1970 -36.1968
   -36.1968 -36.1968 -36.1967 -36.1966 -36.1966 -36.1966 -36.1965 -36.1965
   -36.1964 -36.1963 -36.1962 -36.1962 -36.1962 -36.1961 -36.1960 -36.1960
   -36.1960 -36.1960 -36.1959 -36.1958 -36.1957 -36.1956 -36.1954 -36.1954
   -36.1930 -36.1929 -36.1563 -36.1562 -36.1560 -36.1560 -36.1560 -36.1559
   -36.1558 -36.1558 -36.1557 -36.1556 -36.1556 -36.1556 -36.1556 -36.1555
   -36.1555 -36.1555 -36.1554 -36.1554 -36.1554 -36.1553 -36.1553 -36.1553
   -36.1553 -36.1553 -36.1552 -36.1552 -36.1552 -36.1552 -36.1551 -36.1551
   -36.1551 -36.1551 -36.1551 -36.1550 -36.1550 -36.1549 -36.1549 -36.1548
   -36.1547 -36.1547 -36.1547 -36.1547 -36.1546 -36.1546 -36.1546 -36.1545
   -36.1545 -36.1545 -36.1545 -36.1545 -36.1544 -36.1544 -36.1543 -36.1543
   -36.1543 -36.1543 -36.1542 -36.1541 -36.1541 -36.1541 -36.1540 -36.1539
   -36.1539 -36.1538 -36.1537 -36.1537 -36.1537 -36.1536 -36.1535 -36.1534
   -36.1518 -36.1515 -36.1388 -36.1386 -36.1385 -36.1383 -36.1381 -36.1381
   -36.1380 -36.1379 -36.1379 -36.1378 -36.1378 -36.1378 -36.1377 -36.1375
   -36.1374 -36.1373 -36.1372 -36.1369 -36.1361 -36.1359 -36.1358 -36.1355
   -36.1353 -36.1353 -36.1353 -36.1351 -36.1351 -36.1351 -36.1350 -36.1350
   -36.1348 -36.1346 -36.1346 -36.1344 -36.1344 -36.1333 -27.0840 -27.0840
   -27.0837 -27.0835 -27.0775 -27.0771 -27.0625 -27.0621 -27.0533 -27.0533
   -27.0529 -27.0527 -27.0047 -27.0043 -27.0015 -27.0015 -27.0012 -27.0010
   -27.0000 -26.9996 -26.9854 -26.9854 -26.9851 -26.9849 -26.9829 -26.9829
   -26.9825 -26.9824 -26.9709 -26.9705 -26.9589 -26.9589 -26.9585 -26.9584
   -26.9571 -26.9569 -26.9506 -26.9506 -26.9506 -26.9501 -26.9501 -26.9497
   -26.9377 -26.9376 -26.9375 -26.9371 -26.9331 -26.9328 -26.9328 -26.9328
   -26.9325 -26.9321 -26.9310 -26.9307  -2.8509  -2.7321  -2.5383  -2.5369
    -2.4252  -2.4235  -1.8098  -1.8086  -1.7511  -1.7242  -1.7228  -1.5973
    -1.5968  -1.5592  -1.4963  -1.4741  -1.4727  -1.4352  -1.4277  -1.4271
    -1.4200  -1.4182  -1.3582  -1.3180  -1.2429  -1.2423  -1.1360  -1.1353
    -1.0896  -1.0889  -1.0884  -1.0302  -1.0297  -1.0260  -1.0190  -0.9838
     5.4610   5.4619   5.5756   5.6112   5.6121   5.6782   5.8122   5.9623
     5.9631   6.0978   6.1391   6.1838   6.1910   6.1918   6.3018   6.3027
     6.5293   6.5363   6.5373   6.5656   6.6489   6.6496   6.6892   6.6899
     6.6979   6.7880   6.9393   6.9402   7.0909   7.0915   7.2139   7.2151
     7.2720   7.2724   7.2736   7.3064   7.3808   7.3809   7.4021   7.4022
     7.4252   7.4253   7.4411   7.5863   7.5944   7.5959   8.0443   8.0861
     8.1074   8.1135   8.1144   8.1276   8.1282   8.2061   8.2257   8.3132
     8.3139   8.3348   8.3506   8.3516   8.4029   8.4246   8.4254   8.4399
     8.4838   8.4841   8.5212   8.6261   8.7910   8.8630   8.8642   8.9271
     8.9282   8.9828   8.9836   9.0069   9.0082   9.0738   9.0902   9.1089
     9.2947   9.2951   9.3240   9.3246   9.3826   9.4115   9.4428   9.4652
     9.4661   9.5007   9.5016   9.6117   9.6146   9.6350   9.6352   9.6743
     9.6747   9.7485   9.8829   9.8840   9.9577   9.9589  10.0481  10.0500
    10.0752  10.4562  10.4574  10.5742  10.6455  10.6461  10.6699  10.6705
    10.6712  10.6724  10.7926  10.7933  10.8328  10.8353  10.8362  10.8504
    10.8514  10.8786  10.9071  11.0400  11.1884  11.3191

          k =-0.2500 0.4330-0.1957 ( 98374 PWs)   bands (ev):

   -62.8120 -62.8117 -62.8109 -62.8105 -62.8105 -62.8101 -62.8087 -62.8082
   -62.8082 -62.8079 -62.8076 -62.8074 -62.8074 -62.8074 -62.8071 -62.8070
   -62.8067 -62.8066 -36.1988 -36.1987 -36.1987 -36.1986 -36.1986 -36.1985
   -36.1985 -36.1985 -36.1985 -36.1984 -36.1984 -36.1984 -36.1983 -36.1983
   -36.1983 -36.1982 -36.1982 -36.1981 -36.1981 -36.1980 -36.1980 -36.1980
   -36.1980 -36.1980 -36.1980 -36.1979 -36.1979 -36.1978 -36.1978 -36.1978
   -36.1977 -36.1977 -36.1977 -36.1976 -36.1976 -36.1975 -36.1975 -36.1974
   -36.1974 -36.1974 -36.1973 -36.1972 -36.1971 -36.1971 -36.1969 -36.1968
   -36.1968 -36.1968 -36.1967 -36.1966 -36.1966 -36.1966 -36.1965 -36.1965
   -36.1964 -36.1963 -36.1962 -36.1962 -36.1962 -36.1961 -36.1960 -36.1960
   -36.1960 -36.1960 -36.1959 -36.1958 -36.1956 -36.1956 -36.1955 -36.1953
   -36.1930 -36.1929 -36.1563 -36.1562 -36.1560 -36.1560 -36.1560 -36.1560
   -36.1559 -36.1558 -36.1557 -36.1556 -36.1556 -36.1556 -36.1555 -36.1555
   -36.1555 -36.1555 -36.1554 -36.1554 -36.1554 -36.1553 -36.1553 -36.1553
   -36.1553 -36.1552 -36.1552 -36.1552 -36.1552 -36.1552 -36.1551 -36.1551
   -36.1551 -36.1551 -36.1550 -36.1550 -36.1550 -36.1549 -36.1548 -36.1548
   -36.1548 -36.1547 -36.1547 -36.1547 -36.1546 -36.1546 -36.1546 -36.1545
   -36.1545 -36.1545 -36.1545 -36.1545 -36.1544 -36.1544 -36.1543 -36.1543
   -36.1543 -36.1543 -36.1542 -36.1541 -36.1541 -36.1541 -36.1540 -36.1540
   -36.1539 -36.1538 -36.1537 -36.1537 -36.1536 -36.1536 -36.1535 -36.1535
   -36.1518 -36.1515 -36.1388 -36.1386 -36.1385 -36.1383 -36.1381 -36.1381
   -36.1380 -36.1379 -36.1379 -36.1379 -36.1378 -36.1378 -36.1377 -36.1375
   -36.1374 -36.1372 -36.1372 -36.1369 -36.1361 -36.1359 -36.1358 -36.1355
   -36.1353 -36.1353 -36.1353 -36.1352 -36.1351 -36.1351 -36.1350 -36.1350
   -36.1348 -36.1347 -36.1345 -36.1344 -36.1344 -36.1333 -27.0840 -27.0840
   -27.0836 -27.0835 -27.0775 -27.0771 -27.0625 -27.0621 -27.0533 -27.0533
   -27.0531 -27.0526 -27.0047 -27.0043 -27.0015 -27.0015 -27.0012 -27.0010
   -27.0000 -26.9996 -26.9854 -26.9854 -26.9850 -26.9849 -26.9829 -26.9829
   -26.9827 -26.9823 -26.9709 -26.9705 -26.9589 -26.9589 -26.9586 -26.9584
   -26.9571 -26.9569 -26.9506 -26.9506 -26.9506 -26.9501 -26.9501 -26.9497
   -26.9376 -26.9376 -26.9375 -26.9371 -26.9330 -26.9328 -26.9328 -26.9328
   -26.9325 -26.9321 -26.9310 -26.9307  -2.8509  -2.7322  -2.5383  -2.5369
    -2.4252  -2.4235  -1.8098  -1.8084  -1.7511  -1.7242  -1.7226  -1.5973
    -1.5968  -1.5592  -1.4964  -1.4741  -1.4730  -1.4352  -1.4276  -1.4271
    -1.4200  -1.4185  -1.3580  -1.3179  -1.2429  -1.2425  -1.1360  -1.1355
    -1.0896  -1.0889  -1.0882  -1.0302  -1.0295  -1.0261  -1.0188  -0.9840
     5.4613   5.4618   5.5756   5.6114   5.6121   5.6780   5.8119   5.9624
     5.9630   6.0978   6.1393   6.1837   6.1912   6.1914   6.3018   6.3025
     6.5295   6.5364   6.5373   6.5657   6.6488   6.6495   6.6892   6.6896
     6.6975   6.7876   6.9398   6.9401   7.0909   7.0914   7.2141   7.2145
     7.2721   7.2727   7.2740   7.3062   7.3808   7.3811   7.4019   7.4027
     7.4250   7.4256   7.4413   7.5866   7.5947   7.5954   8.0445   8.0859
     8.1072   8.1134   8.1147   8.1275   8.1282   8.2062   8.2257   8.3132
     8.3139   8.3352   8.3506   8.3511   8.4031   8.4245   8.4255   8.4395
     8.4835   8.4850   8.5219   8.6263   8.7910   8.8627   8.8642   8.9272
     8.9279   8.9824   8.9835   9.0071   9.0080   9.0740   9.0904   9.1096
     9.2947   9.2950   9.3242   9.3246   9.3817   9.4109   9.4420   9.4653
     9.4662   9.5007   9.5017   9.6120   9.6142   9.6348   9.6352   9.6742
     9.6746   9.7482   9.8824   9.8840   9.9581   9.9588  10.0483  10.0496
    10.0755  10.4565  10.4574  10.5743  10.6453  10.6458  10.6698  10.6703
    10.6716  10.6725  10.7926  10.7936  10.8328  10.8352  10.8361  10.8506
    10.8511  10.8788  10.9070  11.0398  11.1883  11.3195

          k = 0.2500-0.4330-0.1957 ( 98374 PWs)   bands (ev):

   -62.8120 -62.8117 -62.8109 -62.8105 -62.8105 -62.8101 -62.8087 -62.8082
   -62.8082 -62.8079 -62.8076 -62.8074 -62.8074 -62.8074 -62.8071 -62.8070
   -62.8067 -62.8066 -36.1988 -36.1987 -36.1987 -36.1986 -36.1986 -36.1985
   -36.1985 -36.1985 -36.1985 -36.1984 -36.1984 -36.1984 -36.1983 -36.1983
   -36.1983 -36.1982 -36.1982 -36.1981 -36.1981 -36.1980 -36.1980 -36.1980
   -36.1980 -36.1980 -36.1980 -36.1979 -36.1979 -36.1978 -36.1978 -36.1978
   -36.1977 -36.1977 -36.1977 -36.1976 -36.1976 -36.1975 -36.1975 -36.1974
   -36.1974 -36.1974 -36.1973 -36.1972 -36.1971 -36.1971 -36.1969 -36.1968
   -36.1968 -36.1968 -36.1967 -36.1966 -36.1966 -36.1966 -36.1965 -36.1965
   -36.1964 -36.1963 -36.1962 -36.1962 -36.1962 -36.1961 -36.1960 -36.1960
   -36.1960 -36.1960 -36.1959 -36.1958 -36.1957 -36.1956 -36.1955 -36.1953
   -36.1930 -36.1929 -36.1563 -36.1562 -36.1560 -36.1560 -36.1560 -36.1560
   -36.1559 -36.1558 -36.1557 -36.1556 -36.1556 -36.1556 -36.1555 -36.1555
   -36.1555 -36.1555 -36.1554 -36.1554 -36.1554 -36.1553 -36.1553 -36.1553
   -36.1553 -36.1552 -36.1552 -36.1552 -36.1552 -36.1552 -36.1551 -36.1551
   -36.1551 -36.1551 -36.1550 -36.1550 -36.1550 -36.1549 -36.1548 -36.1548
   -36.1548 -36.1547 -36.1547 -36.1547 -36.1546 -36.1546 -36.1546 -36.1545
   -36.1545 -36.1545 -36.1545 -36.1545 -36.1544 -36.1544 -36.1543 -36.1543
   -36.1543 -36.1543 -36.1542 -36.1541 -36.1541 -36.1541 -36.1540 -36.1540
   -36.1539 -36.1538 -36.1537 -36.1537 -36.1536 -36.1536 -36.1535 -36.1535
   -36.1518 -36.1515 -36.1388 -36.1386 -36.1385 -36.1383 -36.1381 -36.1381
   -36.1380 -36.1379 -36.1379 -36.1379 -36.1378 -36.1378 -36.1377 -36.1375
   -36.1374 -36.1372 -36.1372 -36.1369 -36.1361 -36.1359 -36.1358 -36.1355
   -36.1353 -36.1353 -36.1353 -36.1352 -36.1351 -36.1351 -36.1350 -36.1350
   -36.1348 -36.1347 -36.1345 -36.1344 -36.1344 -36.1333 -27.0840 -27.0840
   -27.0836 -27.0835 -27.0775 -27.0771 -27.0625 -27.0621 -27.0533 -27.0533
   -27.0531 -27.0526 -27.0047 -27.0043 -27.0015 -27.0015 -27.0012 -27.0010
   -27.0000 -26.9996 -26.9854 -26.9854 -26.9850 -26.9849 -26.9829 -26.9829
   -26.9827 -26.9823 -26.9709 -26.9705 -26.9589 -26.9589 -26.9586 -26.9584
   -26.9571 -26.9569 -26.9506 -26.9506 -26.9506 -26.9501 -26.9501 -26.9497
   -26.9376 -26.9376 -26.9375 -26.9371 -26.9330 -26.9328 -26.9328 -26.9328
   -26.9325 -26.9321 -26.9310 -26.9307  -2.8509  -2.7322  -2.5383  -2.5369
    -2.4252  -2.4235  -1.8098  -1.8084  -1.7511  -1.7242  -1.7226  -1.5973
    -1.5968  -1.5592  -1.4964  -1.4741  -1.4730  -1.4352  -1.4276  -1.4271
    -1.4200  -1.4185  -1.3580  -1.3179  -1.2429  -1.2425  -1.1360  -1.1355
    -1.0896  -1.0889  -1.0882  -1.0302  -1.0295  -1.0261  -1.0188  -0.9840
     5.4613   5.4618   5.5756   5.6114   5.6121   5.6780   5.8119   5.9624
     5.9630   6.0979   6.1392   6.1837   6.1912   6.1914   6.3018   6.3024
     6.5295   6.5364   6.5372   6.5657   6.6488   6.6494   6.6891   6.6897
     6.6975   6.7877   6.9397   6.9401   7.0911   7.0914   7.2141   7.2145
     7.2722   7.2727   7.2740   7.3063   7.3807   7.3811   7.4019   7.4028
     7.4251   7.4256   7.4412   7.5864   7.5947   7.5954   8.0446   8.0859
     8.1072   8.1135   8.1145   8.1275   8.1283   8.2064   8.2257   8.3133
     8.3137   8.3351   8.3506   8.3512   8.4030   8.4245   8.4256   8.4396
     8.4835   8.4849   8.5217   8.6262   8.7911   8.8627   8.8643   8.9272
     8.9280   8.9825   8.9834   9.0071   9.0079   9.0740   9.0904   9.1097
     9.2947   9.2950   9.3241   9.3246   9.3817   9.4108   9.4420   9.4655
     9.4661   9.5006   9.5017   9.6118   9.6143   9.6349   9.6351   9.6743
     9.6748   9.7484   9.8825   9.8841   9.9580   9.9587  10.0484  10.0497
    10.0755  10.4564  10.4574  10.5742  10.6454  10.6459  10.6698  10.6703
    10.6715  10.6725  10.7927  10.7935  10.8329  10.8354  10.8360  10.8504
    10.8512  10.8787  10.9070  11.0398  11.1885  11.3194

          k = 0.5000-0.0000 0.1957 ( 98374 PWs)   bands (ev):

   -62.8120 -62.8117 -62.8107 -62.8105 -62.8105 -62.8102 -62.8087 -62.8082
   -62.8082 -62.8080 -62.8075 -62.8074 -62.8074 -62.8074 -62.8071 -62.8070
   -62.8067 -62.8066 -36.1988 -36.1987 -36.1987 -36.1986 -36.1986 -36.1986
   -36.1985 -36.1985 -36.1985 -36.1985 -36.1984 -36.1984 -36.1983 -36.1983
   -36.1982 -36.1982 -36.1981 -36.1981 -36.1981 -36.1981 -36.1980 -36.1980
   -36.1980 -36.1980 -36.1979 -36.1979 -36.1978 -36.1978 -36.1978 -36.1978
   -36.1977 -36.1977 -36.1977 -36.1976 -36.1976 -36.1975 -36.1975 -36.1974
   -36.1974 -36.1974 -36.1973 -36.1973 -36.1972 -36.1971 -36.1970 -36.1969
   -36.1968 -36.1968 -36.1966 -36.1966 -36.1966 -36.1966 -36.1965 -36.1964
   -36.1964 -36.1963 -36.1962 -36.1962 -36.1962 -36.1962 -36.1960 -36.1960
   -36.1960 -36.1960 -36.1959 -36.1958 -36.1957 -36.1955 -36.1955 -36.1954
   -36.1930 -36.1929 -36.1563 -36.1562 -36.1560 -36.1560 -36.1560 -36.1559
   -36.1559 -36.1558 -36.1556 -36.1556 -36.1556 -36.1556 -36.1555 -36.1555
   -36.1555 -36.1555 -36.1555 -36.1554 -36.1554 -36.1553 -36.1553 -36.1553
   -36.1553 -36.1553 -36.1552 -36.1552 -36.1552 -36.1552 -36.1551 -36.1551
   -36.1551 -36.1551 -36.1551 -36.1550 -36.1550 -36.1549 -36.1549 -36.1548
   -36.1548 -36.1547 -36.1547 -36.1547 -36.1546 -36.1546 -36.1546 -36.1546
   -36.1545 -36.1545 -36.1545 -36.1545 -36.1544 -36.1544 -36.1543 -36.1543
   -36.1543 -36.1543 -36.1542 -36.1541 -36.1541 -36.1541 -36.1540 -36.1540
   -36.1539 -36.1538 -36.1537 -36.1537 -36.1537 -36.1536 -36.1535 -36.1534
   -36.1518 -36.1515 -36.1388 -36.1386 -36.1385 -36.1383 -36.1381 -36.1381
   -36.1380 -36.1380 -36.1379 -36.1379 -36.1378 -36.1378 -36.1376 -36.1375
   -36.1373 -36.1373 -36.1372 -36.1369 -36.1361 -36.1359 -36.1358 -36.1355
   -36.1353 -36.1353 -36.1353 -36.1352 -36.1351 -36.1351 -36.1350 -36.1350
   -36.1348 -36.1347 -36.1345 -36.1345 -36.1344 -36.1333 -27.0840 -27.0840
   -27.0836 -27.0835 -27.0775 -27.0771 -27.0625 -27.0621 -27.0533 -27.0533
   -27.0530 -27.0527 -27.0047 -27.0043 -27.0015 -27.0015 -27.0012 -27.0010
   -27.0000 -26.9996 -26.9854 -26.9854 -26.9851 -26.9849 -26.9829 -26.9829
   -26.9826 -26.9824 -26.9709 -26.9705 -26.9589 -26.9589 -26.9586 -26.9584
   -26.9571 -26.9569 -26.9506 -26.9506 -26.9506 -26.9501 -26.9501 -26.9497
   -26.9377 -26.9376 -26.9375 -26.9371 -26.9330 -26.9328 -26.9328 -26.9328
   -26.9325 -26.9321 -26.9310 -26.9307  -2.8509  -2.7321  -2.5382  -2.5370
    -2.4251  -2.4236  -1.8097  -1.8085  -1.7511  -1.7242  -1.7228  -1.5971
    -1.5970  -1.5592  -1.4963  -1.4741  -1.4729  -1.4352  -1.4275  -1.4272
    -1.4200  -1.4184  -1.3581  -1.3180  -1.2429  -1.2425  -1.1360  -1.1355
    -1.0896  -1.0889  -1.0882  -1.0302  -1.0296  -1.0261  -1.0189  -0.9839
     5.4611   5.4619   5.5757   5.6113   5.6121   5.6781   5.8120   5.9625
     5.9629   6.0978   6.1392   6.1837   6.1911   6.1916   6.3018   6.3025
     6.5294   6.5364   6.5373   6.5656   6.6488   6.6496   6.6893   6.6897
     6.6977   6.7878   6.9397   6.9401   7.0908   7.0914   7.2141   7.2148
     7.2720   7.2727   7.2737   7.3062   7.3809   7.3810   7.4020   7.4024
     7.4251   7.4254   7.4414   7.5866   7.5944   7.5957   8.0443   8.0859
     8.1073   8.1135   8.1146   8.1275   8.1281   8.2059   8.2257   8.3131
     8.3140   8.3352   8.3506   8.3513   8.4032   8.4246   8.4253   8.4396
     8.4838   8.4846   8.5217   8.6263   8.7909   8.8630   8.8640   8.9272
     8.9280   8.9828   8.9834   9.0070   9.0083   9.0739   9.0903   9.1092
     9.2946   9.2950   9.3241   9.3246   9.3822   9.4113   9.4424   9.4650
     9.4663   9.5008   9.5017   9.6120   9.6143   9.6348   9.6354   9.6742
     9.6745   9.7482   9.8825   9.8839   9.9581   9.9589  10.0482  10.0497
    10.0753  10.4564  10.4573  10.5744  10.6453  10.6459  10.6699  10.6705
    10.6715  10.6723  10.7926  10.7935  10.8328  10.8352  10.8362  10.8507
    10.8512  10.8787  10.9071  11.0399  11.1882  11.3193

          k =-0.5000 0.0000 0.1957 ( 98374 PWs)   bands (ev):

   -62.8120 -62.8117 -62.8107 -62.8105 -62.8105 -62.8102 -62.8087 -62.8082
   -62.8082 -62.8080 -62.8075 -62.8074 -62.8074 -62.8074 -62.8071 -62.8070
   -62.8067 -62.8066 -36.1988 -36.1987 -36.1987 -36.1986 -36.1986 -36.1986
   -36.1985 -36.1985 -36.1985 -36.1985 -36.1984 -36.1984 -36.1983 -36.1983
   -36.1982 -36.1982 -36.1981 -36.1981 -36.1981 -36.1981 -36.1980 -36.1980
   -36.1980 -36.1980 -36.1979 -36.1979 -36.1978 -36.1978 -36.1978 -36.1978
   -36.1977 -36.1977 -36.1977 -36.1976 -36.1976 -36.1975 -36.1975 -36.1974
   -36.1974 -36.1974 -36.1973 -36.1973 -36.1972 -36.1971 -36.1970 -36.1969
   -36.1968 -36.1968 -36.1966 -36.1966 -36.1966 -36.1966 -36.1965 -36.1964
   -36.1964 -36.1963 -36.1962 -36.1962 -36.1962 -36.1962 -36.1960 -36.1960
   -36.1960 -36.1960 -36.1959 -36.1958 -36.1957 -36.1955 -36.1955 -36.1954
   -36.1930 -36.1929 -36.1563 -36.1562 -36.1560 -36.1560 -36.1560 -36.1559
   -36.1559 -36.1558 -36.1556 -36.1556 -36.1556 -36.1556 -36.1555 -36.1555
   -36.1555 -36.1555 -36.1555 -36.1554 -36.1554 -36.1553 -36.1553 -36.1553
   -36.1553 -36.1552 -36.1552 -36.1552 -36.1552 -36.1552 -36.1551 -36.1551
   -36.1551 -36.1551 -36.1551 -36.1550 -36.1550 -36.1549 -36.1549 -36.1548
   -36.1548 -36.1547 -36.1547 -36.1547 -36.1546 -36.1546 -36.1546 -36.1546
   -36.1545 -36.1545 -36.1545 -36.1545 -36.1544 -36.1544 -36.1543 -36.1543
   -36.1543 -36.1543 -36.1542 -36.1541 -36.1541 -36.1541 -36.1540 -36.1540
   -36.1539 -36.1538 -36.1537 -36.1537 -36.1537 -36.1536 -36.1535 -36.1534
   -36.1518 -36.1515 -36.1388 -36.1386 -36.1385 -36.1383 -36.1381 -36.1381
   -36.1380 -36.1380 -36.1379 -36.1379 -36.1378 -36.1378 -36.1376 -36.1375
   -36.1373 -36.1373 -36.1372 -36.1369 -36.1361 -36.1359 -36.1358 -36.1355
   -36.1353 -36.1353 -36.1353 -36.1352 -36.1351 -36.1351 -36.1350 -36.1350
   -36.1348 -36.1347 -36.1345 -36.1345 -36.1344 -36.1333 -27.0840 -27.0840
   -27.0836 -27.0835 -27.0775 -27.0771 -27.0625 -27.0621 -27.0533 -27.0533
   -27.0530 -27.0527 -27.0047 -27.0043 -27.0015 -27.0015 -27.0012 -27.0010
   -27.0000 -26.9996 -26.9854 -26.9854 -26.9851 -26.9849 -26.9829 -26.9829
   -26.9826 -26.9824 -26.9709 -26.9705 -26.9589 -26.9589 -26.9586 -26.9584
   -26.9571 -26.9569 -26.9506 -26.9506 -26.9506 -26.9501 -26.9501 -26.9497
   -26.9377 -26.9376 -26.9375 -26.9371 -26.9330 -26.9328 -26.9328 -26.9328
   -26.9325 -26.9321 -26.9310 -26.9307  -2.8509  -2.7321  -2.5382  -2.5370
    -2.4251  -2.4236  -1.8097  -1.8085  -1.7511  -1.7242  -1.7228  -1.5971
    -1.5970  -1.5592  -1.4963  -1.4741  -1.4729  -1.4352  -1.4275  -1.4272
    -1.4200  -1.4184  -1.3581  -1.3180  -1.2429  -1.2425  -1.1360  -1.1354
    -1.0896  -1.0889  -1.0883  -1.0302  -1.0296  -1.0260  -1.0189  -0.9839
     5.4611   5.4619   5.5756   5.6113   5.6121   5.6781   5.8121   5.9625
     5.9630   6.0978   6.1392   6.1838   6.1911   6.1916   6.3019   6.3025
     6.5294   6.5364   6.5371   6.5657   6.6489   6.6495   6.6891   6.6899
     6.6977   6.7878   6.9395   6.9401   7.0912   7.0914   7.2139   7.2148
     7.2722   7.2726   7.2737   7.3064   7.3808   7.3810   7.4020   7.4025
     7.4252   7.4254   7.4411   7.5863   7.5946   7.5956   8.0445   8.0860
     8.1073   8.1135   8.1143   8.1276   8.1283   8.2064   8.2257   8.3132
     8.3138   8.3349   8.3506   8.3515   8.4029   8.4246   8.4255   8.4398
     8.4837   8.4844   8.5214   8.6261   8.7911   8.8630   8.8641   8.9272
     8.9281   8.9829   8.9832   9.0070   9.0081   9.0739   9.0903   9.1094
     9.2947   9.2951   9.3241   9.3246   9.3822   9.4111   9.4424   9.4653
     9.4662   9.5006   9.5016   9.6117   9.6145   9.6349   9.6352   9.6743
     9.6748   9.7485   9.8828   9.8841   9.9578   9.9588  10.0483  10.0498
    10.0754  10.4562  10.4574  10.5741  10.6454  10.6461  10.6698  10.6704
    10.6714  10.6724  10.7926  10.7934  10.8329  10.8354  10.8360  10.8503
    10.8513  10.8786  10.9070  11.0399  11.1885  11.3192

          k =-0.2500 0.1443 0.1957 ( 98372 PWs)   bands (ev):

   -62.8125 -62.8123 -62.8104 -62.8100 -62.8093 -62.8092 -62.8092 -62.8090
   -62.8082 -62.8081 -62.8081 -62.8078 -62.8077 -62.8073 -62.8069 -62.8069
   -62.8066 -62.8065 -36.1989 -36.1988 -36.1987 -36.1987 -36.1987 -36.1986
   -36.1986 -36.1986 -36.1986 -36.1985 -36.1985 -36.1984 -36.1983 -36.1983
   -36.1983 -36.1982 -36.1982 -36.1982 -36.1982 -36.1981 -36.1981 -36.1981
   -36.1981 -36.1980 -36.1980 -36.1980 -36.1979 -36.1978 -36.1978 -36.1978
   -36.1977 -36.1976 -36.1975 -36.1975 -36.1974 -36.1973 -36.1973 -36.1973
   -36.1971 -36.1971 -36.1971 -36.1971 -36.1969 -36.1968 -36.1968 -36.1968
   -36.1967 -36.1966 -36.1966 -36.1965 -36.1965 -36.1965 -36.1965 -36.1965
   -36.1964 -36.1964 -36.1963 -36.1963 -36.1963 -36.1962 -36.1961 -36.1960
   -36.1960 -36.1960 -36.1960 -36.1959 -36.1958 -36.1957 -36.1956 -36.1954
   -36.1930 -36.1929 -36.1564 -36.1564 -36.1560 -36.1559 -36.1559 -36.1559
   -36.1558 -36.1557 -36.1557 -36.1556 -36.1556 -36.1555 -36.1555 -36.1555
   -36.1555 -36.1554 -36.1554 -36.1554 -36.1554 -36.1554 -36.1553 -36.1553
   -36.1553 -36.1553 -36.1553 -36.1552 -36.1552 -36.1552 -36.1552 -36.1551
   -36.1550 -36.1550 -36.1550 -36.1549 -36.1549 -36.1549 -36.1549 -36.1549
   -36.1548 -36.1548 -36.1548 -36.1547 -36.1547 -36.1546 -36.1546 -36.1546
   -36.1546 -36.1545 -36.1545 -36.1544 -36.1544 -36.1543 -36.1543 -36.1543
   -36.1543 -36.1542 -36.1542 -36.1542 -36.1541 -36.1541 -36.1540 -36.1540
   -36.1539 -36.1538 -36.1537 -36.1536 -36.1536 -36.1536 -36.1535 -36.1534
   -36.1518 -36.1515 -36.1389 -36.1385 -36.1384 -36.1383 -36.1382 -36.1380
   -36.1380 -36.1380 -36.1379 -36.1379 -36.1378 -36.1377 -36.1377 -36.1376
   -36.1374 -36.1373 -36.1372 -36.1369 -36.1363 -36.1357 -36.1357 -36.1356
   -36.1355 -36.1353 -36.1353 -36.1352 -36.1351 -36.1351 -36.1350 -36.1350
   -36.1349 -36.1347 -36.1346 -36.1344 -36.1344 -36.1333 -27.0796 -27.0792
   -27.0667 -27.0667 -27.0664 -27.0661 -27.0646 -27.0646 -27.0644 -27.0640
   -27.0366 -27.0365 -27.0363 -27.0360 -27.0191 -27.0191 -27.0187 -27.0186
   -27.0167 -27.0162 -26.9778 -26.9778 -26.9775 -26.9774 -26.9752 -26.9748
   -26.9690 -26.9690 -26.9687 -26.9686 -26.9608 -26.9606 -26.9603 -26.9599
   -26.9529 -26.9525 -26.9478 -26.9476 -26.9453 -26.9449 -26.9431 -26.9430
   -26.9429 -26.9428 -26.9365 -26.9365 -26.9364 -26.9363 -26.9348 -26.9345
   -26.9300 -26.9300 -26.9298 -26.9297  -3.0203  -2.8995  -2.3954  -2.2857
    -2.1360  -2.1346  -2.0349  -2.0333  -1.8348  -1.7375  -1.7361  -1.6577
    -1.6562  -1.6318  -1.6130  -1.5441  -1.5280  -1.4019  -1.4016  -1.3694
    -1.2954  -1.2941  -1.2649  -1.2646  -1.2639  -1.2621  -1.2123  -1.2119
    -1.1566  -1.1156  -1.1151  -1.0775  -0.9890  -0.9884  -0.9550  -0.9543
     5.3570   5.5257   5.6805   5.8260   5.8264   5.9754   5.9773   5.9778
     6.0697   6.0704   6.0955   6.1440   6.1449   6.2575   6.2582   6.4169
     6.4178   6.5105   6.5111   6.5521   6.5526   6.5947   6.7634   6.7925
     6.7935   6.8179   6.8884   6.8891   6.9359   6.9364   7.0825   7.0828
     7.0863   7.1924   7.1967   7.2114   7.2117   7.3707   7.3713   7.5175
     7.5188   7.5242   7.5248   7.5725   7.6298   7.6300   7.7475   7.7478
     7.8013   7.8022   7.8674   7.9591   7.9600   8.1435   8.2538   8.2547
     8.3629   8.3638   8.4085   8.4100   8.4112   8.4626   8.4640   8.4663
     8.5194   8.5202   8.5564   8.5742   8.6668   8.6681   8.7855   8.9273
     8.9426   8.9777   9.0260   9.3715   9.3726   9.4461   9.4473   9.4587
     9.4618   9.4626   9.4797   9.4918   9.4926   9.5152   9.5194   9.5205
     9.5262   9.5379   9.5381   9.6450   9.6456   9.6834   9.7244   9.7480
     9.7836   9.8317   9.8328   9.8414   9.8417   9.9855  10.0139  10.1235
    10.1265  10.1272  10.2222  10.3387  10.4900  10.4921  10.5153  10.5159
    10.5307  10.5312  10.5809  10.5812  10.6102  10.6105  10.6264  10.6895
    11.0768  11.0770  11.1802  11.1805  11.3663  11.6368

          k =-0.2500-0.1443-0.1957 ( 98372 PWs)   bands (ev):

   -62.8125 -62.8123 -62.8102 -62.8100 -62.8097 -62.8092 -62.8092 -62.8088
   -62.8081 -62.8081 -62.8081 -62.8078 -62.8078 -62.8073 -62.8069 -62.8069
   -62.8066 -62.8064 -36.1989 -36.1988 -36.1987 -36.1987 -36.1986 -36.1986
   -36.1986 -36.1986 -36.1986 -36.1985 -36.1985 -36.1984 -36.1983 -36.1983
   -36.1983 -36.1982 -36.1982 -36.1982 -36.1982 -36.1981 -36.1981 -36.1981
   -36.1980 -36.1980 -36.1980 -36.1979 -36.1979 -36.1979 -36.1978 -36.1977
   -36.1977 -36.1976 -36.1975 -36.1975 -36.1975 -36.1973 -36.1973 -36.1973
   -36.1971 -36.1971 -36.1971 -36.1971 -36.1969 -36.1968 -36.1968 -36.1968
   -36.1967 -36.1966 -36.1966 -36.1965 -36.1965 -36.1965 -36.1965 -36.1965
   -36.1964 -36.1964 -36.1963 -36.1963 -36.1963 -36.1962 -36.1961 -36.1960
   -36.1960 -36.1960 -36.1960 -36.1959 -36.1958 -36.1957 -36.1956 -36.1955
   -36.1930 -36.1930 -36.1564 -36.1564 -36.1560 -36.1559 -36.1559 -36.1559
   -36.1558 -36.1557 -36.1557 -36.1556 -36.1556 -36.1555 -36.1555 -36.1555
   -36.1555 -36.1554 -36.1554 -36.1554 -36.1554 -36.1554 -36.1553 -36.1553
   -36.1553 -36.1553 -36.1552 -36.1552 -36.1552 -36.1552 -36.1552 -36.1551
   -36.1550 -36.1550 -36.1550 -36.1550 -36.1549 -36.1549 -36.1549 -36.1548
   -36.1548 -36.1548 -36.1547 -36.1547 -36.1547 -36.1547 -36.1546 -36.1546
   -36.1546 -36.1545 -36.1545 -36.1544 -36.1544 -36.1543 -36.1543 -36.1543
   -36.1542 -36.1542 -36.1542 -36.1542 -36.1541 -36.1541 -36.1540 -36.1540
   -36.1539 -36.1538 -36.1537 -36.1536 -36.1536 -36.1535 -36.1535 -36.1534
   -36.1518 -36.1515 -36.1389 -36.1385 -36.1384 -36.1383 -36.1383 -36.1380
   -36.1380 -36.1380 -36.1379 -36.1379 -36.1378 -36.1377 -36.1377 -36.1376
   -36.1374 -36.1373 -36.1372 -36.1369 -36.1363 -36.1357 -36.1357 -36.1355
   -36.1355 -36.1353 -36.1352 -36.1352 -36.1352 -36.1350 -36.1350 -36.1350
   -36.1348 -36.1347 -36.1346 -36.1344 -36.1344 -36.1333 -27.0796 -27.0792
   -27.0667 -27.0667 -27.0664 -27.0661 -27.0646 -27.0646 -27.0644 -27.0640
   -27.0366 -27.0365 -27.0362 -27.0360 -27.0191 -27.0191 -27.0188 -27.0186
   -27.0167 -27.0163 -26.9778 -26.9778 -26.9776 -26.9773 -26.9752 -26.9748
   -26.9690 -26.9690 -26.9688 -26.9685 -26.9608 -26.9606 -26.9603 -26.9598
   -26.9529 -26.9525 -26.9478 -26.9476 -26.9453 -26.9449 -26.9431 -26.9430
   -26.9429 -26.9428 -26.9365 -26.9365 -26.9364 -26.9363 -26.9348 -26.9345
   -26.9300 -26.9300 -26.9298 -26.9297  -3.0203  -2.8995  -2.3953  -2.2857
    -2.1360  -2.1348  -2.0349  -2.0335  -1.8349  -1.7375  -1.7363  -1.6577
    -1.6563  -1.6318  -1.6127  -1.5440  -1.5281  -1.4019  -1.4015  -1.3695
    -1.2954  -1.2942  -1.2648  -1.2645  -1.2639  -1.2620  -1.2123  -1.2118
    -1.1568  -1.1156  -1.1150  -1.0778  -0.9890  -0.9885  -0.9550  -0.9542
     5.3570   5.5255   5.6802   5.8262   5.8264   5.9754   5.9775   5.9778
     6.0696   6.0706   6.0955   6.1441   6.1449   6.2575   6.2580   6.4172
     6.4177   6.5104   6.5112   6.5523   6.5524   6.5950   6.7635   6.7924
     6.7936   6.8182   6.8885   6.8889   6.9361   6.9366   7.0824   7.0827
     7.0864   7.1929   7.1966   7.2113   7.2118   7.3705   7.3708   7.5175
     7.5184   7.5242   7.5249   7.5728   7.6295   7.6301   7.7474   7.7477
     7.8014   7.8024   7.8669   7.9591   7.9601   8.1433   8.2535   8.2542
     8.3628   8.3632   8.4089   8.4097   8.4119   8.4626   8.4630   8.4670
     8.5196   8.5200   8.5565   8.5745   8.6672   8.6678   8.7854   8.9271
     8.9423   8.9784   9.0268   9.3721   9.3727   9.4461   9.4471   9.4584
     9.4618   9.4626   9.4796   9.4917   9.4927   9.5143   9.5201   9.5215
     9.5260   9.5373   9.5384   9.6453   9.6455   9.6825   9.7242   9.7490
     9.7848   9.8318   9.8330   9.8405   9.8418   9.9847  10.0141  10.1237
    10.1268  10.1273  10.2223  10.3383  10.4895  10.4923  10.5157  10.5161
    10.5302  10.5312  10.5813  10.5818  10.6099  10.6108  10.6260  10.6891
    11.0768  11.0771  11.1802  11.1805  11.3660  11.6367

          k = 0.2500 0.1443-0.1957 ( 98372 PWs)   bands (ev):

   -62.8125 -62.8123 -62.8102 -62.8100 -62.8097 -62.8092 -62.8092 -62.8088
   -62.8081 -62.8081 -62.8081 -62.8078 -62.8078 -62.8073 -62.8069 -62.8069
   -62.8066 -62.8064 -36.1989 -36.1988 -36.1987 -36.1987 -36.1986 -36.1986
   -36.1986 -36.1986 -36.1986 -36.1985 -36.1985 -36.1984 -36.1983 -36.1983
   -36.1983 -36.1982 -36.1982 -36.1982 -36.1982 -36.1981 -36.1981 -36.1981
   -36.1980 -36.1980 -36.1980 -36.1979 -36.1979 -36.1979 -36.1978 -36.1977
   -36.1977 -36.1976 -36.1975 -36.1975 -36.1975 -36.1973 -36.1973 -36.1973
   -36.1971 -36.1971 -36.1971 -36.1971 -36.1969 -36.1968 -36.1968 -36.1968
   -36.1967 -36.1966 -36.1966 -36.1965 -36.1965 -36.1965 -36.1965 -36.1965
   -36.1964 -36.1964 -36.1963 -36.1963 -36.1963 -36.1962 -36.1961 -36.1960
   -36.1960 -36.1960 -36.1960 -36.1959 -36.1958 -36.1957 -36.1956 -36.1955
   -36.1930 -36.1930 -36.1564 -36.1564 -36.1560 -36.1559 -36.1559 -36.1559
   -36.1558 -36.1557 -36.1557 -36.1556 -36.1556 -36.1555 -36.1555 -36.1555
   -36.1555 -36.1554 -36.1554 -36.1554 -36.1554 -36.1554 -36.1553 -36.1553
   -36.1553 -36.1553 -36.1552 -36.1552 -36.1552 -36.1552 -36.1552 -36.1551
   -36.1550 -36.1550 -36.1550 -36.1550 -36.1549 -36.1549 -36.1549 -36.1548
   -36.1548 -36.1548 -36.1547 -36.1547 -36.1547 -36.1547 -36.1546 -36.1546
   -36.1546 -36.1545 -36.1545 -36.1544 -36.1544 -36.1543 -36.1543 -36.1543
   -36.1542 -36.1542 -36.1542 -36.1542 -36.1541 -36.1541 -36.1540 -36.1540
   -36.1539 -36.1538 -36.1537 -36.1536 -36.1536 -36.1535 -36.1535 -36.1534
   -36.1518 -36.1515 -36.1389 -36.1385 -36.1384 -36.1383 -36.1383 -36.1380
   -36.1380 -36.1380 -36.1379 -36.1379 -36.1378 -36.1377 -36.1377 -36.1376
   -36.1374 -36.1373 -36.1372 -36.1369 -36.1363 -36.1357 -36.1357 -36.1355
   -36.1355 -36.1353 -36.1352 -36.1352 -36.1352 -36.1350 -36.1350 -36.1350
   -36.1348 -36.1347 -36.1346 -36.1344 -36.1344 -36.1333 -27.0796 -27.0792
   -27.0667 -27.0667 -27.0664 -27.0661 -27.0646 -27.0646 -27.0644 -27.0640
   -27.0366 -27.0365 -27.0362 -27.0360 -27.0191 -27.0191 -27.0188 -27.0186
   -27.0167 -27.0163 -26.9778 -26.9778 -26.9776 -26.9773 -26.9752 -26.9748
   -26.9690 -26.9690 -26.9688 -26.9685 -26.9608 -26.9606 -26.9603 -26.9598
   -26.9529 -26.9525 -26.9478 -26.9476 -26.9453 -26.9449 -26.9431 -26.9430
   -26.9429 -26.9428 -26.9365 -26.9365 -26.9364 -26.9363 -26.9348 -26.9345
   -26.9300 -26.9300 -26.9298 -26.9297  -3.0203  -2.8995  -2.3953  -2.2857
    -2.1360  -2.1348  -2.0349  -2.0335  -1.8349  -1.7375  -1.7363  -1.6577
    -1.6563  -1.6318  -1.6128  -1.5440  -1.5281  -1.4019  -1.4014  -1.3695
    -1.2954  -1.2942  -1.2648  -1.2645  -1.2639  -1.2620  -1.2123  -1.2118
    -1.1568  -1.1156  -1.1149  -1.0777  -0.9890  -0.9884  -0.9550  -0.9543
     5.3570   5.5255   5.6802   5.8261   5.8263   5.9754   5.9776   5.9779
     6.0697   6.0705   6.0956   6.1440   6.1450   6.2576   6.2583   6.4170
     6.4178   6.5106   6.5111   6.5520   6.5523   6.5950   6.7635   6.7922
     6.7934   6.8182   6.8887   6.8892   6.9358   6.9361   7.0828   7.0833
     7.0863   7.1927   7.1966   7.2112   7.2118   7.3704   7.3710   7.5179
     7.5181   7.5242   7.5248   7.5728   7.6296   7.6300   7.7472   7.7478
     7.8014   7.8024   7.8672   7.9589   7.9596   8.1432   8.2540   8.2549
     8.3628   8.3633   8.4086   8.4095   8.4118   8.4626   8.4630   8.4669
     8.5194   8.5199   8.5566   8.5745   8.6673   8.6679   8.7852   8.9271
     8.9423   8.9784   9.0267   9.3717   9.3727   9.4461   9.4471   9.4579
     9.4619   9.4629   9.4796   9.4918   9.4927   9.5145   9.5199   9.5205
     9.5260   9.5377   9.5384   9.6455   9.6460   9.6831   9.7245   9.7490
     9.7848   9.8321   9.8327   9.8406   9.8416   9.9847  10.0141  10.1237
    10.1266  10.1275  10.2218  10.3381  10.4896  10.4920  10.5157  10.5159
    10.5305  10.5314  10.5814  10.5819  10.6098  10.6106  10.6264  10.6888
    11.0767  11.0770  11.1802  11.1806  11.3663  11.6366

          k = 0.0000-0.2887 0.1957 ( 98372 PWs)   bands (ev):

   -62.8125 -62.8123 -62.8103 -62.8100 -62.8095 -62.8092 -62.8092 -62.8089
   -62.8082 -62.8081 -62.8081 -62.8078 -62.8077 -62.8073 -62.8069 -62.8069
   -62.8066 -62.8065 -36.1989 -36.1988 -36.1987 -36.1987 -36.1986 -36.1986
   -36.1986 -36.1986 -36.1986 -36.1985 -36.1985 -36.1984 -36.1984 -36.1983
   -36.1983 -36.1983 -36.1982 -36.1982 -36.1982 -36.1981 -36.1981 -36.1981
   -36.1980 -36.1980 -36.1980 -36.1980 -36.1979 -36.1979 -36.1978 -36.1978
   -36.1977 -36.1976 -36.1975 -36.1975 -36.1974 -36.1973 -36.1973 -36.1973
   -36.1971 -36.1971 -36.1971 -36.1971 -36.1969 -36.1968 -36.1968 -36.1968
   -36.1966 -36.1966 -36.1966 -36.1965 -36.1965 -36.1965 -36.1965 -36.1965
   -36.1964 -36.1964 -36.1963 -36.1963 -36.1963 -36.1963 -36.1961 -36.1961
   -36.1960 -36.1960 -36.1960 -36.1959 -36.1958 -36.1957 -36.1956 -36.1954
   -36.1930 -36.1930 -36.1564 -36.1564 -36.1560 -36.1559 -36.1559 -36.1559
   -36.1558 -36.1557 -36.1557 -36.1556 -36.1556 -36.1555 -36.1555 -36.1555
   -36.1554 -36.1554 -36.1554 -36.1554 -36.1554 -36.1553 -36.1553 -36.1553
   -36.1553 -36.1553 -36.1553 -36.1552 -36.1552 -36.1552 -36.1552 -36.1551
   -36.1550 -36.1550 -36.1550 -36.1549 -36.1549 -36.1549 -36.1549 -36.1549
   -36.1548 -36.1548 -36.1548 -36.1547 -36.1547 -36.1546 -36.1546 -36.1546
   -36.1546 -36.1545 -36.1545 -36.1544 -36.1544 -36.1543 -36.1543 -36.1543
   -36.1542 -36.1542 -36.1542 -36.1542 -36.1541 -36.1541 -36.1540 -36.1540
   -36.1539 -36.1538 -36.1537 -36.1536 -36.1536 -36.1535 -36.1535 -36.1534
   -36.1518 -36.1515 -36.1389 -36.1385 -36.1384 -36.1383 -36.1382 -36.1380
   -36.1380 -36.1380 -36.1379 -36.1378 -36.1378 -36.1378 -36.1377 -36.1375
   -36.1374 -36.1373 -36.1372 -36.1369 -36.1363 -36.1357 -36.1357 -36.1355
   -36.1355 -36.1353 -36.1352 -36.1352 -36.1352 -36.1350 -36.1350 -36.1350
   -36.1349 -36.1347 -36.1346 -36.1344 -36.1344 -36.1333 -27.0796 -27.0792
   -27.0667 -27.0667 -27.0664 -27.0661 -27.0646 -27.0646 -27.0644 -27.0640
   -27.0366 -27.0365 -27.0363 -27.0360 -27.0191 -27.0191 -27.0187 -27.0186
   -27.0167 -27.0162 -26.9778 -26.9778 -26.9776 -26.9773 -26.9752 -26.9748
   -26.9690 -26.9690 -26.9687 -26.9685 -26.9608 -26.9606 -26.9603 -26.9599
   -26.9529 -26.9525 -26.9478 -26.9476 -26.9453 -26.9449 -26.9431 -26.9430
   -26.9429 -26.9428 -26.9365 -26.9365 -26.9364 -26.9363 -26.9348 -26.9345
   -26.9300 -26.9300 -26.9298 -26.9297  -3.0203  -2.8995  -2.3953  -2.2857
    -2.1361  -2.1346  -2.0350  -2.0333  -1.8348  -1.7375  -1.7362  -1.6577
    -1.6562  -1.6318  -1.6129  -1.5441  -1.5281  -1.4021  -1.4014  -1.3695
    -1.2954  -1.2942  -1.2649  -1.2645  -1.2639  -1.2620  -1.2124  -1.2118
    -1.1567  -1.1157  -1.1150  -1.0776  -0.9890  -0.9884  -0.9550  -0.9543
     5.3570   5.5256   5.6803   5.8260   5.8264   5.9754   5.9773   5.9779
     6.0694   6.0707   6.0955   6.1439   6.1451   6.2574   6.2582   6.4170
     6.4178   6.5105   6.5112   6.5522   6.5525   6.5948   6.7635   6.7925
     6.7936   6.8180   6.8883   6.8891   6.9360   6.9365   7.0823   7.0830
     7.0864   7.1926   7.1966   7.2112   7.2118   7.3706   7.3711   7.5175
     7.5187   7.5241   7.5249   7.5726   7.6296   7.6300   7.7473   7.7479
     7.8010   7.8026   7.8672   7.9587   7.9604   8.1434   8.2539   8.2543
     8.3628   8.3635   8.4084   8.4101   8.4116   8.4625   8.4636   8.4667
     8.5194   8.5203   8.5565   8.5744   8.6669   8.6680   8.7854   8.9272
     8.9424   8.9781   9.0264   9.3718   9.3727   9.4460   9.4472   9.4586
     9.4615   9.4628   9.4796   9.4916   9.4928   9.5147   9.5195   9.5212
     9.5261   9.5376   9.5382   9.6451   9.6456   9.6829   9.7243   9.7485
     9.7842   9.8318   9.8329   9.8409   9.8418   9.9851  10.0140  10.1236
    10.1265  10.1273  10.2222  10.3385  10.4898  10.4922  10.5153  10.5162
    10.5303  10.5314  10.5810  10.5816  10.6100  10.6107  10.6262  10.6893
    11.0768  11.0770  11.1802  11.1805  11.3661  11.6368

          k = 0.0000 0.2887 0.1957 ( 98372 PWs)   bands (ev):

   -62.8125 -62.8123 -62.8103 -62.8100 -62.8095 -62.8092 -62.8092 -62.8089
   -62.8082 -62.8081 -62.8081 -62.8078 -62.8077 -62.8073 -62.8069 -62.8069
   -62.8066 -62.8065 -36.1989 -36.1988 -36.1987 -36.1987 -36.1986 -36.1986
   -36.1986 -36.1986 -36.1986 -36.1985 -36.1985 -36.1984 -36.1984 -36.1983
   -36.1983 -36.1983 -36.1982 -36.1982 -36.1982 -36.1981 -36.1981 -36.1981
   -36.1980 -36.1980 -36.1980 -36.1980 -36.1979 -36.1979 -36.1978 -36.1978
   -36.1977 -36.1976 -36.1975 -36.1975 -36.1974 -36.1973 -36.1973 -36.1973
   -36.1971 -36.1971 -36.1971 -36.1971 -36.1969 -36.1968 -36.1968 -36.1968
   -36.1966 -36.1966 -36.1966 -36.1965 -36.1965 -36.1965 -36.1965 -36.1965
   -36.1964 -36.1964 -36.1963 -36.1963 -36.1963 -36.1963 -36.1961 -36.1961
   -36.1960 -36.1960 -36.1960 -36.1959 -36.1958 -36.1957 -36.1956 -36.1954
   -36.1930 -36.1930 -36.1564 -36.1564 -36.1559 -36.1559 -36.1559 -36.1559
   -36.1558 -36.1557 -36.1557 -36.1556 -36.1556 -36.1555 -36.1555 -36.1555
   -36.1554 -36.1554 -36.1554 -36.1554 -36.1554 -36.1553 -36.1553 -36.1553
   -36.1553 -36.1553 -36.1553 -36.1552 -36.1552 -36.1552 -36.1552 -36.1551
   -36.1550 -36.1550 -36.1550 -36.1549 -36.1549 -36.1549 -36.1549 -36.1549
   -36.1548 -36.1548 -36.1548 -36.1547 -36.1547 -36.1546 -36.1546 -36.1546
   -36.1546 -36.1545 -36.1545 -36.1544 -36.1544 -36.1543 -36.1543 -36.1543
   -36.1542 -36.1542 -36.1542 -36.1542 -36.1541 -36.1541 -36.1540 -36.1540
   -36.1539 -36.1538 -36.1537 -36.1536 -36.1536 -36.1535 -36.1535 -36.1534
   -36.1518 -36.1515 -36.1389 -36.1385 -36.1384 -36.1383 -36.1382 -36.1380
   -36.1380 -36.1380 -36.1379 -36.1378 -36.1378 -36.1378 -36.1377 -36.1375
   -36.1374 -36.1373 -36.1372 -36.1369 -36.1363 -36.1357 -36.1357 -36.1355
   -36.1355 -36.1353 -36.1352 -36.1352 -36.1352 -36.1350 -36.1350 -36.1350
   -36.1349 -36.1347 -36.1346 -36.1344 -36.1344 -36.1333 -27.0796 -27.0792
   -27.0667 -27.0667 -27.0664 -27.0661 -27.0646 -27.0646 -27.0644 -27.0640
   -27.0366 -27.0365 -27.0363 -27.0360 -27.0191 -27.0191 -27.0187 -27.0186
   -27.0167 -27.0162 -26.9778 -26.9778 -26.9776 -26.9773 -26.9752 -26.9748
   -26.9690 -26.9690 -26.9687 -26.9685 -26.9608 -26.9606 -26.9603 -26.9599
   -26.9529 -26.9525 -26.9478 -26.9476 -26.9453 -26.9449 -26.9431 -26.9430
   -26.9429 -26.9428 -26.9365 -26.9365 -26.9364 -26.9363 -26.9348 -26.9345
   -26.9300 -26.9300 -26.9298 -26.9297  -3.0203  -2.8995  -2.3953  -2.2857
    -2.1361  -2.1346  -2.0350  -2.0333  -1.8348  -1.7375  -1.7362  -1.6577
    -1.6562  -1.6318  -1.6129  -1.5441  -1.5281  -1.4021  -1.4014  -1.3695
    -1.2954  -1.2942  -1.2649  -1.2645  -1.2639  -1.2620  -1.2124  -1.2118
    -1.1567  -1.1157  -1.1150  -1.0776  -0.9890  -0.9884  -0.9550  -0.9543
     5.3570   5.5256   5.6803   5.8259   5.8265   5.9754   5.9774   5.9779
     6.0695   6.0707   6.0955   6.1438   6.1451   6.2576   6.2583   6.4170
     6.4178   6.5105   6.5112   6.5519   6.5524   6.5950   6.7634   6.7923
     6.7934   6.8181   6.8888   6.8891   6.9357   6.9362   7.0829   7.0831
     7.0864   7.1925   7.1965   7.2112   7.2120   7.3704   7.3710   7.5177
     7.5183   7.5241   7.5253   7.5727   7.6294   7.6301   7.7473   7.7479
     7.8012   7.8025   7.8673   7.9586   7.9599   8.1433   8.2534   8.2553
     8.3627   8.3639   8.4088   8.4096   8.4115   8.4625   8.4634   8.4667
     8.5193   8.5200   8.5565   8.5744   8.6669   8.6682   8.7854   8.9272
     8.9424   8.9781   9.0264   9.3718   9.3727   9.4460   9.4471   9.4584
     9.4614   9.4629   9.4796   9.4917   9.4930   9.5149   9.5198   9.5208
     9.5261   9.5375   9.5383   9.6448   9.6459   9.6831   9.7244   9.7485
     9.7842   9.8319   9.8327   9.8406   9.8415   9.9851  10.0140  10.1236
    10.1270  10.1276  10.2219  10.3384  10.4899  10.4921  10.5153  10.5157
    10.5306  10.5314  10.5810  10.5818  10.6099  10.6107  10.6266  10.6890
    11.0767  11.0770  11.1802  11.1806  11.3662  11.6367

     highest occupied level (ev):    11.6368

!    total energy              =  -11463.67590754 Ry
     estimated scf accuracy    <          8.6E-11 Ry

     The total energy is the sum of the following terms:
     one-electron contribution =   -6097.09543071 Ry
     hartree contribution      =    3270.77535086 Ry
     xc contribution           =   -2338.90311043 Ry
     ewald contribution        =   -6296.53623515 Ry
     Dispersion Correction     =      -1.91648211 Ry

     convergence has been achieved in  26 iterations

     Forces acting on atoms (cartesian axes, Ry/au):

     atom    1 type  1   force =    -0.00000379   -0.00000013    0.00002441
     atom    2 type  1   force =     0.00000033    0.00000403   -0.00000309
     atom    3 type  1   force =    -0.00000274    0.00000311   -0.00000210
     atom    4 type  1   force =    -0.00000407   -0.00000190    0.00000020
     atom    5 type  1   force =     0.00000405    0.00000037   -0.00000535
     atom    6 type  1   force =     0.00000015   -0.00000008    0.00000056
     atom    7 type  1   force =    -0.00000437   -0.00000189   -0.00000035
     atom    8 type  1   force =     0.00000188   -0.00000000    0.00000451
     atom    9 type  1   force =     0.00000058   -0.00000443   -0.00000490
     atom   10 type  1   force =    -0.00173047    0.00083168   -0.00185239
     atom   11 type  1   force =    -0.00000743   -0.00002170   -0.00005758
     atom   12 type  1   force =    -0.00001892    0.00015722   -0.00061422
     atom   13 type  1   force =    -0.00029083   -0.00099672   -0.00124108
     atom   14 type  1   force =    -0.00002125   -0.00005869   -0.00009289
     atom   15 type  1   force =     0.00000817    0.00004177   -0.00003108
     atom   16 type  1   force =     0.00001283    0.00001179   -0.00005968
     atom   17 type  1   force =    -0.00002523    0.00001036   -0.00005546
     atom   18 type  1   force =     0.00008013    0.00001710   -0.00006211
     atom   19 type  2   force =     0.00238658    0.00000975    0.00482387
     atom   20 type  2   force =    -0.00014483    0.00000098    0.00076693
     atom   21 type  2   force =    -0.00020768   -0.00000923    0.00081665
     atom   22 type  2   force =    -0.00003575    0.00012142    0.00080668
     atom   23 type  2   force =    -0.00001253   -0.00006431    0.00077609
     atom   24 type  2   force =     0.00000582   -0.00000048    0.00069086
     atom   25 type  2   force =    -0.00000499    0.00005816    0.00078172
     atom   26 type  2   force =     0.00000592    0.00000007    0.00069070
     atom   27 type  2   force =    -0.00004316   -0.00010724    0.00080089
     atom   28 type  2   force =     0.00002032   -0.00001009   -0.00071057
     atom   29 type  2   force =    -0.00000094    0.00000163   -0.00068854
     atom   30 type  2   force =    -0.00004151   -0.00002531   -0.00075992
     atom   31 type  2   force =     0.00000243    0.00003544   -0.00073503
     atom   32 type  2   force =     0.00000285    0.00000004   -0.00068437
     atom   33 type  2   force =    -0.00000204    0.00000224   -0.00068787
     atom   34 type  2   force =    -0.00000161   -0.00000033   -0.00068932
     atom   35 type  2   force =     0.00000087   -0.00000093   -0.00068725
     atom   36 type  2   force =     0.00000221   -0.00000266   -0.00068587
     atom   37 type  2   force =     0.00000023    0.00000013    0.00068796
     atom   38 type  2   force =     0.00000134    0.00000009    0.00068767
     atom   39 type  2   force =    -0.00000031   -0.00000001    0.00068834
     atom   40 type  2   force =    -0.00000019    0.00000010    0.00068803
     atom   41 type  2   force =    -0.00000040   -0.00000086    0.00068941
     atom   42 type  2   force =     0.00000102   -0.00000060    0.00068789
     atom   43 type  2   force =     0.00000063   -0.00000029    0.00068734
     atom   44 type  2   force =     0.00000033    0.00000075    0.00068745
     atom   45 type  2   force =     0.00000043    0.00000101    0.00068844
     atom   46 type  2   force =     0.00004966    0.00000002   -0.00128025
     atom   47 type  2   force =    -0.00007064   -0.00006052   -0.00072236
     atom   48 type  2   force =     0.00000580   -0.00000569   -0.00066313
     atom   49 type  2   force =     0.00006984   -0.00001235   -0.00070025
     atom   50 type  2   force =    -0.00002569   -0.00002121   -0.00068528
     atom   51 type  2   force =    -0.00000394   -0.00000043   -0.00066473
     atom   52 type  2   force =     0.00003201    0.00010812   -0.00072951
     atom   53 type  2   force =    -0.00000407    0.00000007   -0.00066465
     atom   54 type  2   force =     0.00001297   -0.00000936   -0.00065543

     Total force =     0.007623     Total SCF correction =     0.000063


     Computing stress (Cartesian axis) and pressure

          total   stress  (Ry/bohr**3)                   (kbar)     P=      -48.35
  -0.00040483   0.00000018  -0.00000069          -59.55        0.03       -0.10
   0.00000018  -0.00040483  -0.00000000            0.03      -59.55       -0.00
  -0.00000069  -0.00000000  -0.00017629           -0.10       -0.00      -25.93


     Writing all to output data dir ./WSe.save/ :
     XML data file, charge density, pseudopotentials, collected wavefunctions
 
     init_run     :     11.71s CPU     13.26s WALL (       1 calls)
     electrons    :    886.48s CPU   1043.23s WALL (       1 calls)
     forces       :      8.28s CPU      8.72s WALL (       1 calls)
     force_london :      0.04s CPU      0.04s WALL (       1 calls)
     stress       :    124.25s CPU    132.03s WALL (       1 calls)
     stres_london :      0.04s CPU      0.04s WALL (       1 calls)

     Called by init_run:
     wfcinit      :     10.71s CPU     12.14s WALL (       1 calls)
     potinit      :      0.07s CPU      0.11s WALL (       1 calls)
     hinit0       :      0.47s CPU      0.50s WALL (       1 calls)

     Called by electrons:
     c_bands      :    833.15s CPU    982.38s WALL (      27 calls)
     sum_band     :     50.58s CPU     57.09s WALL (      27 calls)
     v_of_rho     :      1.85s CPU      2.11s WALL (      27 calls)
     mix_rho      :      0.67s CPU      0.77s WALL (      27 calls)
     energy_londo :      0.04s CPU      0.04s WALL (       1 calls)

     Called by c_bands:
     init_us_2    :     10.98s CPU     11.07s WALL (     171 calls)
     init_us_2:cp :     10.97s CPU     11.06s WALL (     171 calls)
     cegterg      :    795.59s CPU    931.57s WALL (      81 calls)

     Called by *egterg:
     cdiaghg      :     47.28s CPU    120.19s WALL (     470 calls)
     h_psi        :    463.13s CPU    500.64s WALL (     476 calls)
     g_psi        :      1.91s CPU      1.95s WALL (     392 calls)

     Called by h_psi:
     h_psi:calbec :    119.53s CPU    126.01s WALL (     476 calls)
     vloc_psi     :    232.01s CPU    261.52s WALL (     476 calls)
     add_vuspsi   :    106.92s CPU    107.65s WALL (     476 calls)

     General routines
     calbec       :    127.93s CPU    138.19s WALL (     491 calls)
     fft          :      1.37s CPU      1.58s WALL (     295 calls)
     ffts         :      0.09s CPU      0.10s WALL (      27 calls)
     fftw         :    242.49s CPU    273.29s WALL (  207158 calls)
 
     Parallel routines
     fft_scatt_xy :     33.29s CPU     36.85s WALL (  207480 calls)
     fft_scatt_yz :    133.36s CPU    153.17s WALL (  207480 calls)
 
     PWSCF        :  17m12.85s CPU  20m 6.54s WALL

 
   This run was terminated on:  18:10:54   5Nov2024            

=------------------------------------------------------------------------------=
   JOB DONE.
=------------------------------------------------------------------------------=
