srun: Step created for StepId=20162846.1

     Program PWSCF v.7.3 starts on  5Nov2024 at 17:30:17 

     This program is part of the open-source Quantum ESPRESSO suite
     for quantum simulation of materials; please cite
         "P. Giannozzi et al., J. Phys.:Condens. Matter 21 395502 (2009);
         "P. Giannozzi et al., J. Phys.:Condens. Matter 29 465901 (2017);
         "P. Giannozzi et al., J. Chem. Phys. 152 154105 (2020);
          URL http://www.quantum-espresso.org", 
     in publications or presentations arising from this work. More details at
     http://www.quantum-espresso.org/quote

     Parallel version (MPI & OpenMP), running on     256 processor cores
     Number of MPI processes:               256
     Threads/MPI process:                     1

     MPI processes distributed on     1 nodes
     483290 MiB available memory on the printing compute node when the environment starts
 
     Waiting for input...
     Reading input from standard input

     Current dimensions of program PWSCF are:
     Max number of different atomic species (ntypx) = 10
     Max number of k-points (npk) =  40000
     Max angular momentum in pseudopotentials (lmaxx) =  4
 
     K-points division:     npool     =       4
     R & G space division:  proc/nbgrp/npool/nimage =      64
     Subspace diagonalization in iterative solution of the eigenvalue problem:
     one sub-group per band group will be used
     scalapack distributed-memory algorithm (size of sub-group:  4*  4 procs)

 
     Parallelization info
     --------------------
     sticks:   dense  smooth     PW     G-vecs:    dense   smooth      PW
     Min         130     130     33                12298    12298    1625
     Max         131     131     34                12305    12305    1630
     Sum        8353    8353   2173               787269   787269  104197
 
     Using Pencil Decomposition
 


     bravais-lattice index     =            0
     lattice parameter (alat)  =      19.4500  a.u.
     unit-cell volume          =    8142.1067 (a.u.)^3
     number of atoms/cell      =           54
     number of atomic types    =            2
     number of electrons       =       828.00
     number of Kohn-Sham states=          414
     kinetic-energy cutoff     =      80.0000  Ry
     charge density cutoff     =     320.0000  Ry
     scf convergence threshold =      1.0E-10
     mixing beta               =       0.5000
     number of iterations used =            8  plain     mixing
     Exchange-correlation= PBE
                           (   1   4   3   4   0   0   0)

     celldm(1)=  19.450020  celldm(2)=   0.000000  celldm(3)=   0.000000
     celldm(4)=   0.000000  celldm(5)=   0.000000  celldm(6)=   0.000000

     crystal axes: (cart. coord. in units of alat)
               a(1) = (   1.000000   0.000000   0.000000 )  
               a(2) = (  -0.500000   0.866025   0.000000 )  
               a(3) = (   0.000000   0.000000   1.277750 )  

     reciprocal axes: (cart. coord. in units 2 pi/alat)
               b(1) = (  1.000000  0.577350  0.000000 )  
               b(2) = (  0.000000  1.154701  0.000000 )  
               b(3) = (  0.000000  0.000000  0.782626 )  


     PseudoPot. # 1 for W  read from file:
     /users/rkarkee/pbe_pseudo/W.upf
     MD5 check sum: cb94e439a9e4ea809831d6e90c63864e
     Pseudo is Norm-conserving + core correction, Zval = 14.0
     Generated using ONCVPSP code by D. R. Hamann
     Using radial grid of 1396 points,  8 beta functions with: 
                l(1) =   0
                l(2) =   0
                l(3) =   1
                l(4) =   1
                l(5) =   2
                l(6) =   2
                l(7) =   3
                l(8) =   3

     PseudoPot. # 2 for Se read from file:
     /users/rkarkee/pbe_pseudo/Se.upf
     MD5 check sum: 3cc46b3642295b3f4fdae63b742ce36d
     Pseudo is Norm-conserving + core correction, Zval = 16.0
     Generated using ONCVPSP code by D. R. Hamann
     Using radial grid of 1214 points,  6 beta functions with: 
                l(1) =   0
                l(2) =   0
                l(3) =   1
                l(4) =   1
                l(5) =   2
                l(6) =   2

     atomic species   valence    mass     pseudopotential
     W                14.00   183.84000     W ( 1.00)
     Se               16.00    78.96000     Se( 1.00)

     No symmetry found



   Cartesian axes

     site n.     atom                  positions (alat units)
         1        W      tau(   1) = (  -0.0000000   0.1924501   0.9583127  )
         2        W      tau(   2) = (   0.3333333   0.1924501   0.9583127  )
         3        W      tau(   3) = (   0.6666667   0.1924501   0.9583127  )
         4        W      tau(   4) = (  -0.1666667   0.4811252   0.9583127  )
         5        W      tau(   5) = (   0.1666667   0.4811252   0.9583127  )
         6        W      tau(   6) = (   0.5000000   0.4811252   0.9583127  )
         7        W      tau(   7) = (  -0.3333333   0.7698004   0.9583127  )
         8        W      tau(   8) = (   0.0000000   0.7698004   0.9583127  )
         9        W      tau(   9) = (   0.3333333   0.7698004   0.9583127  )
        10        W      tau(  10) = (   0.1666667   0.0962250   0.3194376  )
        11        W      tau(  11) = (   0.5000000   0.0962250   0.3194376  )
        12        W      tau(  12) = (   0.8333333   0.0962250   0.3194376  )
        13        W      tau(  13) = (  -0.0000000   0.3849002   0.3194376  )
        14        W      tau(  14) = (   0.3333333   0.3849002   0.3194376  )
        15        W      tau(  15) = (   0.6666667   0.3849002   0.3194376  )
        16        W      tau(  16) = (  -0.1666667   0.6735753   0.3194376  )
        17        W      tau(  17) = (   0.1666667   0.6735753   0.3194376  )
        18        W      tau(  18) = (   0.5000000   0.6735753   0.3194376  )
        19        Se     tau(  19) = (   0.0006337   0.1924501   0.1608580  )
        20        Se     tau(  20) = (   0.3333333   0.1924501   0.1600483  )
        21        Se     tau(  21) = (   0.6666667   0.1924501   0.1600483  )
        22        Se     tau(  22) = (  -0.1666667   0.4811252   0.1600483  )
        23        Se     tau(  23) = (   0.1666667   0.4811252   0.1600483  )
        24        Se     tau(  24) = (   0.5000000   0.4811252   0.1600483  )
        25        Se     tau(  25) = (  -0.3333333   0.7698004   0.1600483  )
        26        Se     tau(  26) = (   0.0000000   0.7698004   0.1600483  )
        27        Se     tau(  27) = (   0.3333333   0.7698004   0.1600483  )
        28        Se     tau(  28) = (   0.1666667   0.0962250   1.1177020  )
        29        Se     tau(  29) = (   0.5000000   0.0962250   1.1177020  )
        30        Se     tau(  30) = (   0.8333333   0.0962250   1.1177020  )
        31        Se     tau(  31) = (  -0.0000000   0.3849002   1.1177020  )
        32        Se     tau(  32) = (   0.3333333   0.3849002   1.1177020  )
        33        Se     tau(  33) = (   0.6666667   0.3849002   1.1177020  )
        34        Se     tau(  34) = (  -0.1666667   0.6735753   1.1177020  )
        35        Se     tau(  35) = (   0.1666667   0.6735753   1.1177020  )
        36        Se     tau(  36) = (   0.5000000   0.6735753   1.1177020  )
        37        Se     tau(  37) = (   0.1666667   0.0962250   0.7989234  )
        38        Se     tau(  38) = (   0.5000000   0.0962250   0.7989234  )
        39        Se     tau(  39) = (   0.8333333   0.0962250   0.7989234  )
        40        Se     tau(  40) = (  -0.0000000   0.3849002   0.7989234  )
        41        Se     tau(  41) = (   0.3333333   0.3849002   0.7989234  )
        42        Se     tau(  42) = (   0.6666667   0.3849002   0.7989234  )
        43        Se     tau(  43) = (  -0.1666667   0.6735753   0.7989234  )
        44        Se     tau(  44) = (   0.1666667   0.6735753   0.7989234  )
        45        Se     tau(  45) = (   0.5000000   0.6735753   0.7989234  )
        46        Se     tau(  46) = (  -0.0000000   0.1924501   0.4788269  )
        47        Se     tau(  47) = (   0.3333333   0.1924501   0.4788269  )
        48        Se     tau(  48) = (   0.6666667   0.1924501   0.4788269  )
        49        Se     tau(  49) = (  -0.1666667   0.4811252   0.4788269  )
        50        Se     tau(  50) = (   0.1666667   0.4811252   0.4788269  )
        51        Se     tau(  51) = (   0.5000000   0.4811252   0.4788269  )
        52        Se     tau(  52) = (  -0.3333333   0.7698004   0.4788269  )
        53        Se     tau(  53) = (   0.0000000   0.7698004   0.4788269  )
        54        Se     tau(  54) = (   0.3333333   0.7698004   0.4788269  )

     -------------------------------------------------
     Parameters for Dispersion (Grimme-D2) Correction:
     -------------------------------------------------
       atom      VdW radius       C_6     

        W          3.349       2818.308
        Se         3.347        438.498

     number of k points=    12
                       cart. coord. in units 2pi/alat
        k(    1) = (   0.2500000   0.4330127   0.1956564), wk =   0.1666667
        k(    2) = (   0.2500000  -0.1443376   0.1956564), wk =   0.1666667
        k(    3) = (  -0.2500000  -0.4330127   0.1956564), wk =   0.1666667
        k(    4) = (  -0.2500000   0.4330127  -0.1956564), wk =   0.1666667
        k(    5) = (   0.2500000  -0.4330127  -0.1956564), wk =   0.1666667
        k(    6) = (   0.5000000  -0.0000000   0.1956564), wk =   0.1666667
        k(    7) = (  -0.5000000   0.0000000   0.1956564), wk =   0.1666667
        k(    8) = (  -0.2500000   0.1443376   0.1956564), wk =   0.1666667
        k(    9) = (  -0.2500000  -0.1443376  -0.1956564), wk =   0.1666667
        k(   10) = (   0.2500000   0.1443376  -0.1956564), wk =   0.1666667
        k(   11) = (   0.0000000  -0.2886751   0.1956564), wk =   0.1666667
        k(   12) = (   0.0000000   0.2886751   0.1956564), wk =   0.1666667

     Dense  grid:   787269 G-vectors     FFT dimensions: ( 120, 120, 144)

     Estimated max dynamical RAM per process >     131.42 MB

     Estimated total dynamical RAM >      32.29 GB

     Initial potential from superposition of free atoms

     starting charge     827.9882, renormalised to     828.0000
     Starting wfcs are  504 randomized atomic wfcs

     total cpu time spent up to now is       13.8 secs

     Self-consistent Calculation

     iteration #  1     ecut=    80.00 Ry     beta= 0.50
     Davidson diagonalization with overlap
     ethr =  1.00E-02,  avg # of iterations =  2.0

     Threshold (ethr) on eigenvalues was too large:
     Diagonalizing with lowered threshold

     Davidson diagonalization with overlap
     ethr =  9.26E-05,  avg # of iterations =  5.5

     total cpu time spent up to now is       98.1 secs

     total energy              =  -11463.53168685 Ry
     estimated scf accuracy    <       1.05903472 Ry

     iteration #  2     ecut=    80.00 Ry     beta= 0.50
     Davidson diagonalization with overlap
     ethr =  1.28E-04,  avg # of iterations =  2.0

     total cpu time spent up to now is      133.2 secs

     total energy              =  -11463.66136090 Ry
     estimated scf accuracy    <       0.09841296 Ry

     iteration #  3     ecut=    80.00 Ry     beta= 0.50
     Davidson diagonalization with overlap
     ethr =  1.19E-05,  avg # of iterations =  5.0

     total cpu time spent up to now is      172.6 secs

     total energy              =  -11463.66562280 Ry
     estimated scf accuracy    <       0.02686059 Ry

     iteration #  4     ecut=    80.00 Ry     beta= 0.50
     Davidson diagonalization with overlap
     ethr =  3.24E-06,  avg # of iterations =  6.0

     total cpu time spent up to now is      220.8 secs

     total energy              =  -11463.67119328 Ry
     estimated scf accuracy    <       0.04836895 Ry

     iteration #  5     ecut=    80.00 Ry     beta= 0.50
     Davidson diagonalization with overlap
     ethr =  3.24E-06,  avg # of iterations =  5.0

     total cpu time spent up to now is      256.7 secs

     total energy              =  -11463.67385559 Ry
     estimated scf accuracy    <       0.00494344 Ry

     iteration #  6     ecut=    80.00 Ry     beta= 0.50
     Davidson diagonalization with overlap
     ethr =  5.97E-07,  avg # of iterations =  6.0

     total cpu time spent up to now is      305.5 secs

     total energy              =  -11463.67623917 Ry
     estimated scf accuracy    <       0.00578007 Ry

     iteration #  7     ecut=    80.00 Ry     beta= 0.50
     Davidson diagonalization with overlap
     ethr =  5.97E-07,  avg # of iterations =  3.0

     total cpu time spent up to now is      338.4 secs

     total energy              =  -11463.67586802 Ry
     estimated scf accuracy    <       0.00472662 Ry

     iteration #  8     ecut=    80.00 Ry     beta= 0.50
     Davidson diagonalization with overlap
     ethr =  5.71E-07,  avg # of iterations =  2.0

     total cpu time spent up to now is      368.4 secs

     total energy              =  -11463.67534476 Ry
     estimated scf accuracy    <       0.00196347 Ry

     iteration #  9     ecut=    80.00 Ry     beta= 0.50
     Davidson diagonalization with overlap
     ethr =  2.37E-07,  avg # of iterations =  5.6

     total cpu time spent up to now is      412.1 secs

     total energy              =  -11463.67596350 Ry
     estimated scf accuracy    <       0.00074709 Ry

     iteration # 10     ecut=    80.00 Ry     beta= 0.50
     Davidson diagonalization with overlap
     ethr =  9.02E-08,  avg # of iterations =  2.0

     total cpu time spent up to now is      440.9 secs

     total energy              =  -11463.67581018 Ry
     estimated scf accuracy    <       0.00052783 Ry

     iteration # 11     ecut=    80.00 Ry     beta= 0.50
     Davidson diagonalization with overlap
     ethr =  6.37E-08,  avg # of iterations =  6.0

     total cpu time spent up to now is      481.5 secs

     total energy              =  -11463.67592096 Ry
     estimated scf accuracy    <       0.00010150 Ry

     iteration # 12     ecut=    80.00 Ry     beta= 0.50
     Davidson diagonalization with overlap
     ethr =  1.23E-08,  avg # of iterations =  5.0

     total cpu time spent up to now is      515.5 secs

     total energy              =  -11463.67591909 Ry
     estimated scf accuracy    <       0.00003005 Ry

     iteration # 13     ecut=    80.00 Ry     beta= 0.50
     Davidson diagonalization with overlap
     ethr =  3.63E-09,  avg # of iterations =  6.8

     total cpu time spent up to now is      562.7 secs

     total energy              =  -11463.67592736 Ry
     estimated scf accuracy    <       0.00003106 Ry

     iteration # 14     ecut=    80.00 Ry     beta= 0.50
     Davidson diagonalization with overlap
     ethr =  3.63E-09,  avg # of iterations =  2.0

     total cpu time spent up to now is      593.3 secs

     total energy              =  -11463.67592649 Ry
     estimated scf accuracy    <       0.00001032 Ry

     iteration # 15     ecut=    80.00 Ry     beta= 0.50
     Davidson diagonalization with overlap
     ethr =  1.25E-09,  avg # of iterations =  6.0

     total cpu time spent up to now is      635.1 secs

     total energy              =  -11463.67592834 Ry
     estimated scf accuracy    <       0.00000050 Ry

     iteration # 16     ecut=    80.00 Ry     beta= 0.50
     Davidson diagonalization with overlap
     ethr =  6.06E-11,  avg # of iterations =  6.5

     total cpu time spent up to now is      679.3 secs

     total energy              =  -11463.67592845 Ry
     estimated scf accuracy    <       0.00000018 Ry

     iteration # 17     ecut=    80.00 Ry     beta= 0.50
     Davidson diagonalization with overlap
     ethr =  2.14E-11,  avg # of iterations =  7.0

     total cpu time spent up to now is      720.3 secs

     total energy              =  -11463.67592847 Ry
     estimated scf accuracy    <       0.00000016 Ry

     iteration # 18     ecut=    80.00 Ry     beta= 0.50
     Davidson diagonalization with overlap
     ethr =  1.92E-11,  avg # of iterations =  3.0

     total cpu time spent up to now is      752.8 secs

     total energy              =  -11463.67592845 Ry
     estimated scf accuracy    <       0.00000010 Ry

     iteration # 19     ecut=    80.00 Ry     beta= 0.50
     Davidson diagonalization with overlap
     ethr =  1.23E-11,  avg # of iterations =  6.0

     total cpu time spent up to now is      795.3 secs

     total energy              =  -11463.67592847 Ry
     estimated scf accuracy    <       0.00000004 Ry

     iteration # 20     ecut=    80.00 Ry     beta= 0.50
     Davidson diagonalization with overlap
     ethr =  5.23E-12,  avg # of iterations =  3.0

     total cpu time spent up to now is      826.5 secs

     total energy              =  -11463.67592846 Ry
     estimated scf accuracy    <       0.00000002 Ry

     iteration # 21     ecut=    80.00 Ry     beta= 0.50
     Davidson diagonalization with overlap
     ethr =  2.72E-12,  avg # of iterations =  6.0

     total cpu time spent up to now is      866.1 secs

     total energy              =  -11463.67592847 Ry
     estimated scf accuracy    <          2.1E-09 Ry

     iteration # 22     ecut=    80.00 Ry     beta= 0.50
     Davidson diagonalization with overlap
     ethr =  2.48E-13,  avg # of iterations = 10.5

     total cpu time spent up to now is      919.5 secs

     total energy              =  -11463.67592847 Ry
     estimated scf accuracy    <          6.2E-09 Ry

     iteration # 23     ecut=    80.00 Ry     beta= 0.50
     Davidson diagonalization with overlap
     ethr =  2.48E-13,  avg # of iterations =  7.5

     total cpu time spent up to now is      961.5 secs

     total energy              =  -11463.67592847 Ry
     estimated scf accuracy    <          1.4E-09 Ry

     iteration # 24     ecut=    80.00 Ry     beta= 0.50
     Davidson diagonalization with overlap
     ethr =  1.64E-13,  avg # of iterations =  7.0

     total cpu time spent up to now is     1001.7 secs

     total energy              =  -11463.67592847 Ry
     estimated scf accuracy    <          6.6E-10 Ry

     iteration # 25     ecut=    80.00 Ry     beta= 0.50
     Davidson diagonalization with overlap
     ethr =  1.00E-13,  avg # of iterations =  6.6

     total cpu time spent up to now is     1038.6 secs

     total energy              =  -11463.67592847 Ry
     estimated scf accuracy    <          1.5E-10 Ry

     iteration # 26     ecut=    80.00 Ry     beta= 0.50
     Davidson diagonalization with overlap
     ethr =  1.00E-13,  avg # of iterations =  2.0

     total cpu time spent up to now is     1068.2 secs

     End of self-consistent calculation

          k = 0.2500 0.4330 0.1957 ( 98374 PWs)   bands (ev):

   -62.8116 -62.8112 -62.8106 -62.8101 -62.8101 -62.8100 -62.8083 -62.8080
   -62.8078 -62.8078 -62.8076 -62.8072 -62.8069 -62.8069 -62.8069 -62.8066
   -62.8064 -62.8057 -36.2017 -36.2017 -36.1990 -36.1988 -36.1988 -36.1987
   -36.1987 -36.1987 -36.1986 -36.1985 -36.1985 -36.1984 -36.1983 -36.1982
   -36.1982 -36.1982 -36.1982 -36.1982 -36.1981 -36.1981 -36.1981 -36.1980
   -36.1980 -36.1980 -36.1980 -36.1980 -36.1979 -36.1979 -36.1979 -36.1978
   -36.1978 -36.1977 -36.1977 -36.1977 -36.1976 -36.1976 -36.1976 -36.1975
   -36.1975 -36.1975 -36.1974 -36.1973 -36.1973 -36.1972 -36.1972 -36.1971
   -36.1970 -36.1969 -36.1969 -36.1969 -36.1968 -36.1967 -36.1966 -36.1965
   -36.1964 -36.1963 -36.1963 -36.1963 -36.1962 -36.1961 -36.1961 -36.1961
   -36.1961 -36.1960 -36.1960 -36.1959 -36.1958 -36.1958 -36.1957 -36.1957
   -36.1955 -36.1955 -36.1583 -36.1580 -36.1563 -36.1563 -36.1561 -36.1561
   -36.1560 -36.1559 -36.1557 -36.1557 -36.1557 -36.1557 -36.1556 -36.1556
   -36.1556 -36.1555 -36.1555 -36.1555 -36.1555 -36.1554 -36.1554 -36.1554
   -36.1553 -36.1553 -36.1553 -36.1552 -36.1552 -36.1551 -36.1551 -36.1551
   -36.1550 -36.1550 -36.1550 -36.1550 -36.1550 -36.1549 -36.1549 -36.1548
   -36.1548 -36.1548 -36.1548 -36.1547 -36.1547 -36.1547 -36.1547 -36.1547
   -36.1546 -36.1546 -36.1546 -36.1545 -36.1545 -36.1545 -36.1544 -36.1544
   -36.1543 -36.1542 -36.1542 -36.1541 -36.1541 -36.1541 -36.1540 -36.1540
   -36.1540 -36.1539 -36.1539 -36.1538 -36.1538 -36.1538 -36.1537 -36.1536
   -36.1536 -36.1535 -36.1398 -36.1388 -36.1386 -36.1384 -36.1383 -36.1381
   -36.1381 -36.1381 -36.1380 -36.1380 -36.1379 -36.1377 -36.1376 -36.1375
   -36.1374 -36.1374 -36.1373 -36.1372 -36.1363 -36.1360 -36.1359 -36.1356
   -36.1355 -36.1354 -36.1353 -36.1353 -36.1352 -36.1351 -36.1350 -36.1348
   -36.1348 -36.1348 -36.1346 -36.1346 -36.1345 -36.1345 -27.0841 -27.0839
   -27.0835 -27.0835 -27.0776 -27.0771 -27.0625 -27.0621 -27.0534 -27.0532
   -27.0528 -27.0528 -27.0047 -27.0042 -27.0015 -27.0014 -27.0010 -27.0010
   -26.9999 -26.9995 -26.9854 -26.9852 -26.9849 -26.9849 -26.9829 -26.9827
   -26.9825 -26.9824 -26.9708 -26.9704 -26.9589 -26.9587 -26.9584 -26.9584
   -26.9569 -26.9566 -26.9506 -26.9501 -26.9501 -26.9501 -26.9500 -26.9496
   -26.9376 -26.9371 -26.9371 -26.9371 -26.9330 -26.9326 -26.9323 -26.9323
   -26.9323 -26.9320 -26.9307 -26.9306  -2.8523  -2.7339  -2.5397  -2.5382
    -2.4268  -2.4252  -1.8111  -1.8098  -1.7511  -1.7257  -1.7243  -1.5975
    -1.5969  -1.5595  -1.4978  -1.4757  -1.4742  -1.4368  -1.4281  -1.4275
    -1.4214  -1.4201  -1.3594  -1.3194  -1.2434  -1.2428  -1.1368  -1.1360
    -1.0901  -1.0893  -1.0889  -1.0308  -1.0303  -1.0267  -1.0195  -0.9847
     5.4600   5.4608   5.5752   5.6099   5.6108   5.6769   5.8106   5.9618
     5.9626   6.0964   6.1379   6.1828   6.1894   6.1902   6.3000   6.3009
     6.5286   6.5353   6.5363   6.5648   6.6482   6.6491   6.6886   6.6891
     6.6963   6.7863   6.9390   6.9399   7.0902   7.0908   7.2129   7.2140
     7.2713   7.2717   7.2726   7.3056   7.3789   7.3790   7.4009   7.4013
     7.4232   7.4234   7.4404   7.5852   7.5930   7.5944   8.0443   8.0837
     8.1050   8.1131   8.1137   8.1270   8.1279   8.2056   8.2248   8.3116
     8.3126   8.3343   8.3490   8.3500   8.4023   8.4237   8.4245   8.4384
     8.4829   8.4831   8.5219   8.6254   8.7900   8.8615   8.8628   8.9259
     8.9270   8.9810   8.9820   9.0056   9.0069   9.0717   9.0880   9.1085
     9.2925   9.2930   9.3219   9.3224   9.3802   9.4119   9.4403   9.4661
     9.4672   9.5003   9.5011   9.6128   9.6150   9.6345   9.6347   9.6743
     9.6747   9.7490   9.8835   9.8846   9.9586   9.9596  10.0484  10.0502
    10.0752  10.4571  10.4582  10.5748  10.6445  10.6452  10.6690  10.6696
    10.6712  10.6719  10.7920  10.7928  10.8322  10.8353  10.8365  10.8506
    10.8515  10.8779  10.9064  11.0391  11.1892  11.3200

          k = 0.2500-0.1443 0.1957 ( 98372 PWs)   bands (ev):

   -62.8121 -62.8119 -62.8100 -62.8096 -62.8092 -62.8088 -62.8087 -62.8087
   -62.8080 -62.8079 -62.8076 -62.8076 -62.8073 -62.8073 -62.8065 -62.8065
   -62.8064 -62.8056 -36.2017 -36.2017 -36.1991 -36.1989 -36.1988 -36.1988
   -36.1987 -36.1987 -36.1986 -36.1986 -36.1985 -36.1984 -36.1984 -36.1983
   -36.1983 -36.1983 -36.1982 -36.1982 -36.1982 -36.1981 -36.1981 -36.1981
   -36.1981 -36.1981 -36.1980 -36.1980 -36.1979 -36.1979 -36.1978 -36.1978
   -36.1977 -36.1977 -36.1977 -36.1976 -36.1976 -36.1976 -36.1975 -36.1975
   -36.1975 -36.1973 -36.1972 -36.1971 -36.1970 -36.1970 -36.1968 -36.1968
   -36.1968 -36.1968 -36.1967 -36.1966 -36.1966 -36.1966 -36.1966 -36.1965
   -36.1965 -36.1964 -36.1964 -36.1963 -36.1963 -36.1962 -36.1961 -36.1961
   -36.1961 -36.1961 -36.1961 -36.1960 -36.1960 -36.1959 -36.1958 -36.1958
   -36.1958 -36.1955 -36.1583 -36.1580 -36.1564 -36.1564 -36.1560 -36.1560
   -36.1559 -36.1559 -36.1559 -36.1558 -36.1558 -36.1557 -36.1556 -36.1556
   -36.1555 -36.1555 -36.1554 -36.1554 -36.1554 -36.1554 -36.1553 -36.1553
   -36.1553 -36.1552 -36.1552 -36.1552 -36.1552 -36.1551 -36.1551 -36.1551
   -36.1550 -36.1550 -36.1550 -36.1550 -36.1549 -36.1549 -36.1549 -36.1549
   -36.1549 -36.1548 -36.1548 -36.1548 -36.1548 -36.1548 -36.1547 -36.1547
   -36.1547 -36.1546 -36.1546 -36.1545 -36.1545 -36.1544 -36.1544 -36.1544
   -36.1543 -36.1543 -36.1543 -36.1542 -36.1541 -36.1541 -36.1541 -36.1541
   -36.1539 -36.1539 -36.1538 -36.1538 -36.1537 -36.1537 -36.1537 -36.1536
   -36.1536 -36.1535 -36.1398 -36.1389 -36.1385 -36.1384 -36.1383 -36.1382
   -36.1381 -36.1380 -36.1379 -36.1379 -36.1378 -36.1377 -36.1377 -36.1375
   -36.1375 -36.1374 -36.1373 -36.1372 -36.1364 -36.1359 -36.1358 -36.1358
   -36.1355 -36.1354 -36.1353 -36.1352 -36.1351 -36.1350 -36.1350 -36.1350
   -36.1348 -36.1348 -36.1347 -36.1347 -36.1345 -36.1344 -27.0797 -27.0792
   -27.0668 -27.0665 -27.0662 -27.0662 -27.0648 -27.0644 -27.0642 -27.0642
   -27.0367 -27.0363 -27.0361 -27.0361 -27.0191 -27.0190 -27.0186 -27.0186
   -27.0166 -27.0162 -26.9778 -26.9778 -26.9774 -26.9774 -26.9751 -26.9747
   -26.9690 -26.9690 -26.9686 -26.9686 -26.9606 -26.9603 -26.9602 -26.9598
   -26.9528 -26.9524 -26.9476 -26.9474 -26.9452 -26.9448 -26.9429 -26.9428
   -26.9426 -26.9426 -26.9364 -26.9363 -26.9361 -26.9361 -26.9345 -26.9343
   -26.9298 -26.9297 -26.9296 -26.9296  -3.0218  -2.9013  -2.3967  -2.2873
    -2.1375  -2.1360  -2.0366  -2.0350  -1.8348  -1.7390  -1.7375  -1.6593
    -1.6577  -1.6321  -1.6141  -1.5455  -1.5283  -1.4022  -1.4018  -1.3700
    -1.2969  -1.2955  -1.2660  -1.2648  -1.2646  -1.2639  -1.2127  -1.2123
    -1.1573  -1.1162  -1.1157  -1.0784  -0.9896  -0.9890  -0.9556  -0.9550
     5.3566   5.5243   5.6787   5.8247   5.8251   5.9745   5.9758   5.9763
     6.0686   6.0693   6.0950   6.1429   6.1437   6.2563   6.2569   6.4158
     6.4164   6.5090   6.5099   6.5503   6.5508   6.5936   6.7632   6.7916
     6.7926   6.8178   6.8882   6.8883   6.9357   6.9359   7.0817   7.0819
     7.0846   7.1920   7.1953   7.2103   7.2108   7.3697   7.3701   7.5161
     7.5173   7.5228   7.5239   7.5715   7.6287   7.6291   7.7463   7.7466
     7.8009   7.8016   7.8664   7.9584   7.9592   8.1421   8.2531   8.2543
     8.3608   8.3624   8.4081   8.4094   8.4100   8.4609   8.4620   8.4650
     8.5184   8.5189   8.5543   8.5720   8.6653   8.6668   8.7859   8.9246
     8.9399   8.9768   9.0250   9.3728   9.3734   9.4445   9.4455   9.4591
     9.4610   9.4618   9.4775   9.4898   9.4911   9.5133   9.5193   9.5198
     9.5239   9.5383   9.5390   9.6455   9.6462   9.6839   9.7252   9.7474
     9.7830   9.8329   9.8335   9.8414   9.8424   9.9838  10.0126  10.1220
    10.1274  10.1277  10.2230  10.3380  10.4893  10.4924  10.5156  10.5158
    10.5298  10.5304  10.5810  10.5814  10.6095  10.6098  10.6261  10.6891
    11.0762  11.0764  11.1795  11.1797  11.3671  11.6375

          k =-0.2500-0.4330 0.1957 ( 98374 PWs)   bands (ev):

   -62.8116 -62.8112 -62.8106 -62.8101 -62.8101 -62.8100 -62.8083 -62.8080
   -62.8078 -62.8078 -62.8076 -62.8072 -62.8069 -62.8069 -62.8069 -62.8066
   -62.8064 -62.8057 -36.2017 -36.2017 -36.1990 -36.1988 -36.1988 -36.1987
   -36.1987 -36.1987 -36.1986 -36.1985 -36.1985 -36.1984 -36.1983 -36.1982
   -36.1982 -36.1982 -36.1982 -36.1982 -36.1981 -36.1981 -36.1981 -36.1980
   -36.1980 -36.1980 -36.1980 -36.1980 -36.1979 -36.1979 -36.1979 -36.1978
   -36.1978 -36.1977 -36.1977 -36.1977 -36.1976 -36.1976 -36.1976 -36.1975
   -36.1975 -36.1975 -36.1974 -36.1973 -36.1973 -36.1972 -36.1972 -36.1971
   -36.1970 -36.1969 -36.1969 -36.1969 -36.1968 -36.1967 -36.1966 -36.1965
   -36.1964 -36.1963 -36.1963 -36.1963 -36.1962 -36.1961 -36.1961 -36.1961
   -36.1961 -36.1960 -36.1960 -36.1959 -36.1958 -36.1958 -36.1957 -36.1957
   -36.1955 -36.1955 -36.1583 -36.1580 -36.1563 -36.1563 -36.1561 -36.1561
   -36.1560 -36.1559 -36.1557 -36.1557 -36.1557 -36.1557 -36.1556 -36.1556
   -36.1556 -36.1555 -36.1555 -36.1555 -36.1555 -36.1554 -36.1554 -36.1554
   -36.1553 -36.1553 -36.1553 -36.1552 -36.1552 -36.1551 -36.1551 -36.1551
   -36.1550 -36.1550 -36.1550 -36.1550 -36.1550 -36.1549 -36.1549 -36.1548
   -36.1548 -36.1548 -36.1548 -36.1547 -36.1547 -36.1547 -36.1547 -36.1547
   -36.1546 -36.1546 -36.1546 -36.1545 -36.1545 -36.1545 -36.1544 -36.1544
   -36.1543 -36.1542 -36.1542 -36.1542 -36.1541 -36.1541 -36.1540 -36.1540
   -36.1540 -36.1539 -36.1539 -36.1538 -36.1538 -36.1538 -36.1537 -36.1536
   -36.1536 -36.1535 -36.1398 -36.1388 -36.1386 -36.1384 -36.1383 -36.1381
   -36.1381 -36.1381 -36.1380 -36.1380 -36.1379 -36.1377 -36.1376 -36.1375
   -36.1374 -36.1374 -36.1373 -36.1372 -36.1363 -36.1360 -36.1359 -36.1356
   -36.1355 -36.1354 -36.1353 -36.1353 -36.1352 -36.1351 -36.1350 -36.1348
   -36.1348 -36.1348 -36.1346 -36.1346 -36.1345 -36.1345 -27.0841 -27.0839
   -27.0835 -27.0835 -27.0776 -27.0771 -27.0625 -27.0621 -27.0534 -27.0532
   -27.0528 -27.0528 -27.0047 -27.0042 -27.0015 -27.0014 -27.0010 -27.0010
   -26.9999 -26.9995 -26.9854 -26.9852 -26.9849 -26.9849 -26.9829 -26.9827
   -26.9825 -26.9824 -26.9708 -26.9704 -26.9589 -26.9587 -26.9584 -26.9584
   -26.9569 -26.9566 -26.9506 -26.9501 -26.9501 -26.9501 -26.9500 -26.9496
   -26.9376 -26.9371 -26.9371 -26.9371 -26.9330 -26.9326 -26.9323 -26.9323
   -26.9323 -26.9320 -26.9307 -26.9306  -2.8523  -2.7339  -2.5397  -2.5382
    -2.4268  -2.4252  -1.8111  -1.8098  -1.7511  -1.7257  -1.7243  -1.5975
    -1.5969  -1.5595  -1.4978  -1.4757  -1.4742  -1.4368  -1.4281  -1.4275
    -1.4214  -1.4201  -1.3594  -1.3194  -1.2434  -1.2428  -1.1368  -1.1360
    -1.0901  -1.0893  -1.0889  -1.0308  -1.0303  -1.0267  -1.0195  -0.9847
     5.4600   5.4608   5.5752   5.6099   5.6108   5.6769   5.8106   5.9618
     5.9626   6.0964   6.1379   6.1827   6.1894   6.1902   6.3000   6.3009
     6.5286   6.5354   6.5363   6.5647   6.6483   6.6491   6.6885   6.6892
     6.6963   6.7863   6.9391   6.9399   7.0901   7.0907   7.2128   7.2141
     7.2712   7.2717   7.2726   7.3055   7.3790   7.3791   7.4010   7.4012
     7.4233   7.4234   7.4405   7.5854   7.5930   7.5943   8.0442   8.0836
     8.1050   8.1131   8.1139   8.1271   8.1277   8.2054   8.2248   8.3117
     8.3126   8.3345   8.3489   8.3500   8.4024   8.4236   8.4244   8.4383
     8.4829   8.4832   8.5220   8.6255   8.7899   8.8615   8.8628   8.9259
     8.9270   8.9811   8.9819   9.0056   9.0069   9.0717   9.0880   9.1084
     9.2924   9.2930   9.3219   9.3224   9.3802   9.4119   9.4404   9.4661
     9.4670   9.5003   9.5012   9.6129   9.6150   9.6345   9.6347   9.6742
     9.6746   9.7488   9.8835   9.8845   9.9587   9.9598  10.0483  10.0502
    10.0752  10.4570  10.4583  10.5749  10.6445  10.6451  10.6690  10.6696
    10.6711  10.6720  10.7921  10.7928  10.8322  10.8354  10.8364  10.8506
    10.8516  10.8779  10.9064  11.0390  11.1890  11.3201

          k =-0.2500 0.4330-0.1957 ( 98374 PWs)   bands (ev):

   -62.8115 -62.8112 -62.8106 -62.8101 -62.8101 -62.8100 -62.8083 -62.8079
   -62.8078 -62.8078 -62.8076 -62.8073 -62.8069 -62.8069 -62.8069 -62.8066
   -62.8065 -62.8057 -36.2017 -36.2017 -36.1989 -36.1988 -36.1988 -36.1987
   -36.1987 -36.1986 -36.1986 -36.1985 -36.1985 -36.1984 -36.1983 -36.1982
   -36.1982 -36.1982 -36.1982 -36.1982 -36.1981 -36.1981 -36.1981 -36.1980
   -36.1980 -36.1980 -36.1980 -36.1979 -36.1979 -36.1979 -36.1978 -36.1978
   -36.1978 -36.1977 -36.1977 -36.1977 -36.1976 -36.1976 -36.1975 -36.1975
   -36.1975 -36.1975 -36.1974 -36.1973 -36.1973 -36.1972 -36.1972 -36.1971
   -36.1970 -36.1969 -36.1969 -36.1969 -36.1968 -36.1967 -36.1967 -36.1965
   -36.1964 -36.1963 -36.1963 -36.1963 -36.1962 -36.1961 -36.1961 -36.1961
   -36.1961 -36.1960 -36.1960 -36.1959 -36.1958 -36.1958 -36.1957 -36.1957
   -36.1955 -36.1955 -36.1583 -36.1580 -36.1563 -36.1563 -36.1562 -36.1561
   -36.1560 -36.1559 -36.1558 -36.1557 -36.1557 -36.1557 -36.1556 -36.1556
   -36.1556 -36.1555 -36.1555 -36.1555 -36.1555 -36.1554 -36.1554 -36.1554
   -36.1554 -36.1553 -36.1553 -36.1552 -36.1551 -36.1551 -36.1551 -36.1551
   -36.1551 -36.1550 -36.1550 -36.1550 -36.1550 -36.1549 -36.1549 -36.1548
   -36.1548 -36.1548 -36.1548 -36.1548 -36.1547 -36.1547 -36.1547 -36.1546
   -36.1546 -36.1546 -36.1546 -36.1545 -36.1545 -36.1545 -36.1545 -36.1543
   -36.1543 -36.1542 -36.1542 -36.1541 -36.1541 -36.1541 -36.1540 -36.1540
   -36.1540 -36.1539 -36.1539 -36.1538 -36.1538 -36.1538 -36.1538 -36.1536
   -36.1536 -36.1535 -36.1398 -36.1388 -36.1387 -36.1383 -36.1383 -36.1382
   -36.1381 -36.1381 -36.1380 -36.1380 -36.1379 -36.1377 -36.1376 -36.1375
   -36.1374 -36.1374 -36.1373 -36.1373 -36.1363 -36.1360 -36.1359 -36.1356
   -36.1355 -36.1354 -36.1353 -36.1353 -36.1353 -36.1351 -36.1350 -36.1348
   -36.1348 -36.1348 -36.1346 -36.1346 -36.1345 -36.1344 -27.0841 -27.0839
   -27.0835 -27.0835 -27.0775 -27.0771 -27.0626 -27.0621 -27.0535 -27.0530
   -27.0528 -27.0528 -27.0046 -27.0042 -27.0016 -27.0013 -27.0010 -27.0010
   -26.9999 -26.9995 -26.9854 -26.9853 -26.9849 -26.9849 -26.9831 -26.9826
   -26.9825 -26.9824 -26.9709 -26.9704 -26.9589 -26.9587 -26.9584 -26.9584
   -26.9569 -26.9566 -26.9506 -26.9501 -26.9501 -26.9501 -26.9500 -26.9496
   -26.9376 -26.9371 -26.9371 -26.9371 -26.9330 -26.9326 -26.9323 -26.9323
   -26.9323 -26.9321 -26.9307 -26.9306  -2.8523  -2.7339  -2.5397  -2.5382
    -2.4268  -2.4252  -1.8113  -1.8098  -1.7511  -1.7259  -1.7243  -1.5974
    -1.5969  -1.5596  -1.4977  -1.4754  -1.4742  -1.4367  -1.4281  -1.4275
    -1.4212  -1.4201  -1.3596  -1.3195  -1.2433  -1.2429  -1.1365  -1.1360
    -1.0903  -1.0893  -1.0890  -1.0310  -1.0303  -1.0266  -1.0197  -0.9845
     5.4600   5.4606   5.5753   5.6099   5.6105   5.6771   5.8109   5.9619
     5.9625   6.0964   6.1378   6.1828   6.1897   6.1899   6.3002   6.3009
     6.5283   6.5353   6.5363   6.5646   6.6485   6.6491   6.6889   6.6892
     6.6966   6.7866   6.9391   6.9394   7.0902   7.0907   7.2134   7.2139
     7.2707   7.2714   7.2726   7.3057   7.3788   7.3791   7.4005   7.4013
     7.4231   7.4236   7.4403   7.5850   7.5936   7.5941   8.0440   8.0839
     8.1051   8.1128   8.1139   8.1272   8.1277   8.2053   8.2248   8.3118
     8.3125   8.3340   8.3495   8.3499   8.4022   8.4235   8.4245   8.4387
     8.4820   8.4835   8.5214   8.6254   8.7899   8.8615   8.8631   8.9262
     8.9269   8.9812   8.9822   9.0059   9.0067   9.0714   9.0878   9.1077
     9.2926   9.2929   9.3220   9.3223   9.3811   9.4125   9.4412   9.4660
     9.4669   9.5002   9.5011   9.6128   9.6152   9.6345   9.6349   9.6742
     9.6746   9.7491   9.8834   9.8850   9.9587   9.9594  10.0486  10.0500
    10.0749  10.4571  10.4580  10.5748  10.6448  10.6453  10.6693  10.6697
    10.6708  10.6716  10.7918  10.7927  10.8321  10.8355  10.8365  10.8508
    10.8514  10.8777  10.9066  11.0392  11.1890  11.3197

          k = 0.2500-0.4330-0.1957 ( 98374 PWs)   bands (ev):

   -62.8115 -62.8112 -62.8106 -62.8101 -62.8101 -62.8100 -62.8083 -62.8079
   -62.8078 -62.8078 -62.8076 -62.8073 -62.8069 -62.8069 -62.8069 -62.8066
   -62.8065 -62.8057 -36.2017 -36.2017 -36.1989 -36.1988 -36.1988 -36.1987
   -36.1987 -36.1986 -36.1986 -36.1985 -36.1985 -36.1984 -36.1983 -36.1982
   -36.1982 -36.1982 -36.1982 -36.1982 -36.1981 -36.1981 -36.1981 -36.1980
   -36.1980 -36.1980 -36.1980 -36.1979 -36.1979 -36.1979 -36.1978 -36.1978
   -36.1978 -36.1977 -36.1977 -36.1977 -36.1976 -36.1976 -36.1975 -36.1975
   -36.1975 -36.1975 -36.1974 -36.1973 -36.1973 -36.1972 -36.1972 -36.1971
   -36.1970 -36.1969 -36.1969 -36.1969 -36.1968 -36.1967 -36.1967 -36.1965
   -36.1964 -36.1963 -36.1963 -36.1963 -36.1962 -36.1961 -36.1961 -36.1961
   -36.1961 -36.1960 -36.1960 -36.1959 -36.1958 -36.1958 -36.1957 -36.1957
   -36.1955 -36.1955 -36.1583 -36.1580 -36.1563 -36.1563 -36.1562 -36.1561
   -36.1560 -36.1559 -36.1558 -36.1557 -36.1557 -36.1557 -36.1556 -36.1556
   -36.1556 -36.1555 -36.1555 -36.1555 -36.1555 -36.1554 -36.1554 -36.1554
   -36.1554 -36.1553 -36.1553 -36.1552 -36.1551 -36.1551 -36.1551 -36.1551
   -36.1551 -36.1550 -36.1550 -36.1550 -36.1550 -36.1549 -36.1549 -36.1548
   -36.1548 -36.1548 -36.1548 -36.1548 -36.1547 -36.1547 -36.1547 -36.1546
   -36.1546 -36.1546 -36.1546 -36.1545 -36.1545 -36.1545 -36.1545 -36.1543
   -36.1543 -36.1542 -36.1542 -36.1541 -36.1541 -36.1541 -36.1540 -36.1540
   -36.1540 -36.1539 -36.1539 -36.1538 -36.1538 -36.1538 -36.1538 -36.1536
   -36.1536 -36.1535 -36.1398 -36.1388 -36.1387 -36.1383 -36.1383 -36.1382
   -36.1381 -36.1381 -36.1380 -36.1380 -36.1379 -36.1377 -36.1376 -36.1375
   -36.1374 -36.1374 -36.1373 -36.1373 -36.1363 -36.1360 -36.1359 -36.1356
   -36.1355 -36.1354 -36.1353 -36.1353 -36.1353 -36.1351 -36.1350 -36.1348
   -36.1348 -36.1348 -36.1346 -36.1346 -36.1345 -36.1344 -27.0841 -27.0839
   -27.0835 -27.0835 -27.0775 -27.0771 -27.0626 -27.0621 -27.0535 -27.0530
   -27.0528 -27.0528 -27.0046 -27.0042 -27.0016 -27.0013 -27.0010 -27.0010
   -26.9999 -26.9995 -26.9854 -26.9853 -26.9849 -26.9849 -26.9831 -26.9826
   -26.9825 -26.9824 -26.9709 -26.9704 -26.9589 -26.9587 -26.9584 -26.9584
   -26.9569 -26.9566 -26.9506 -26.9501 -26.9501 -26.9501 -26.9500 -26.9496
   -26.9376 -26.9371 -26.9371 -26.9371 -26.9330 -26.9326 -26.9323 -26.9323
   -26.9323 -26.9321 -26.9307 -26.9306  -2.8523  -2.7339  -2.5397  -2.5382
    -2.4268  -2.4252  -1.8113  -1.8098  -1.7511  -1.7259  -1.7243  -1.5974
    -1.5969  -1.5596  -1.4977  -1.4754  -1.4742  -1.4367  -1.4281  -1.4275
    -1.4213  -1.4201  -1.3596  -1.3195  -1.2433  -1.2429  -1.1365  -1.1360
    -1.0903  -1.0893  -1.0890  -1.0310  -1.0303  -1.0266  -1.0196  -0.9845
     5.4600   5.4606   5.5753   5.6099   5.6105   5.6771   5.8109   5.9619
     5.9625   6.0963   6.1378   6.1828   6.1897   6.1899   6.3002   6.3009
     6.5283   6.5354   6.5363   6.5646   6.6485   6.6491   6.6888   6.6893
     6.6967   6.7866   6.9391   6.9395   7.0902   7.0905   7.2135   7.2139
     7.2707   7.2714   7.2726   7.3056   7.3788   7.3792   7.4004   7.4013
     7.4231   7.4235   7.4404   7.5852   7.5936   7.5941   8.0439   8.0838
     8.1052   8.1130   8.1139   8.1270   8.1278   8.2051   8.2248   8.3120
     8.3125   8.3342   8.3493   8.3500   8.4023   8.4234   8.4246   8.4386
     8.4821   8.4835   8.5215   8.6255   8.7898   8.8615   8.8631   8.9261
     8.9269   8.9813   8.9822   9.0059   9.0067   9.0714   9.0878   9.1076
     9.2926   9.2929   9.3220   9.3224   9.3811   9.4126   9.4412   9.4661
     9.4667   9.5002   9.5013   9.6129   9.6151   9.6346   9.6348   9.6741
     9.6746   9.7490   9.8833   9.8849   9.9588   9.9596  10.0486  10.0499
    10.0749  10.4570  10.4581  10.5749  10.6447  10.6452  10.6693  10.6698
    10.6707  10.6717  10.7918  10.7927  10.8321  10.8356  10.8363  10.8508
    10.8516  10.8778  10.9066  11.0392  11.1888  11.3198

          k = 0.5000-0.0000 0.1957 ( 98374 PWs)   bands (ev):

   -62.8116 -62.8112 -62.8106 -62.8101 -62.8101 -62.8100 -62.8083 -62.8079
   -62.8078 -62.8078 -62.8076 -62.8072 -62.8069 -62.8069 -62.8069 -62.8066
   -62.8065 -62.8057 -36.2017 -36.2017 -36.1990 -36.1989 -36.1987 -36.1987
   -36.1986 -36.1986 -36.1985 -36.1985 -36.1985 -36.1983 -36.1983 -36.1982
   -36.1982 -36.1982 -36.1982 -36.1982 -36.1981 -36.1981 -36.1981 -36.1980
   -36.1980 -36.1980 -36.1980 -36.1980 -36.1979 -36.1979 -36.1979 -36.1978
   -36.1978 -36.1978 -36.1977 -36.1977 -36.1977 -36.1976 -36.1975 -36.1975
   -36.1975 -36.1975 -36.1974 -36.1974 -36.1973 -36.1972 -36.1972 -36.1971
   -36.1969 -36.1969 -36.1969 -36.1969 -36.1968 -36.1967 -36.1966 -36.1964
   -36.1964 -36.1963 -36.1963 -36.1963 -36.1962 -36.1961 -36.1961 -36.1961
   -36.1961 -36.1960 -36.1960 -36.1959 -36.1959 -36.1958 -36.1957 -36.1957
   -36.1955 -36.1955 -36.1583 -36.1580 -36.1563 -36.1563 -36.1561 -36.1561
   -36.1560 -36.1559 -36.1557 -36.1557 -36.1557 -36.1557 -36.1556 -36.1556
   -36.1555 -36.1555 -36.1555 -36.1555 -36.1555 -36.1554 -36.1554 -36.1554
   -36.1553 -36.1553 -36.1553 -36.1552 -36.1552 -36.1551 -36.1551 -36.1551
   -36.1551 -36.1550 -36.1550 -36.1550 -36.1550 -36.1549 -36.1549 -36.1548
   -36.1548 -36.1548 -36.1548 -36.1548 -36.1547 -36.1547 -36.1547 -36.1547
   -36.1546 -36.1546 -36.1546 -36.1545 -36.1545 -36.1545 -36.1544 -36.1543
   -36.1543 -36.1542 -36.1542 -36.1542 -36.1541 -36.1541 -36.1540 -36.1540
   -36.1539 -36.1539 -36.1539 -36.1538 -36.1538 -36.1538 -36.1537 -36.1536
   -36.1536 -36.1535 -36.1398 -36.1388 -36.1386 -36.1384 -36.1383 -36.1382
   -36.1381 -36.1381 -36.1380 -36.1379 -36.1379 -36.1377 -36.1376 -36.1375
   -36.1374 -36.1374 -36.1373 -36.1373 -36.1363 -36.1360 -36.1359 -36.1356
   -36.1355 -36.1354 -36.1354 -36.1353 -36.1352 -36.1351 -36.1350 -36.1348
   -36.1348 -36.1348 -36.1346 -36.1346 -36.1345 -36.1345 -27.0841 -27.0839
   -27.0835 -27.0835 -27.0775 -27.0771 -27.0625 -27.0621 -27.0534 -27.0531
   -27.0528 -27.0528 -27.0046 -27.0042 -27.0016 -27.0014 -27.0010 -27.0010
   -26.9999 -26.9995 -26.9854 -26.9852 -26.9849 -26.9849 -26.9830 -26.9827
   -26.9825 -26.9824 -26.9708 -26.9704 -26.9589 -26.9587 -26.9584 -26.9584
   -26.9569 -26.9566 -26.9506 -26.9501 -26.9501 -26.9501 -26.9500 -26.9496
   -26.9376 -26.9371 -26.9371 -26.9371 -26.9330 -26.9326 -26.9323 -26.9323
   -26.9323 -26.9321 -26.9307 -26.9306  -2.8523  -2.7339  -2.5396  -2.5383
    -2.4268  -2.4253  -1.8112  -1.8098  -1.7511  -1.7258  -1.7243  -1.5972
    -1.5971  -1.5596  -1.4977  -1.4756  -1.4742  -1.4367  -1.4280  -1.4276
    -1.4213  -1.4201  -1.3595  -1.3195  -1.2433  -1.2429  -1.1366  -1.1361
    -1.0902  -1.0893  -1.0890  -1.0309  -1.0303  -1.0267  -1.0196  -0.9846
     5.4600   5.4607   5.5752   5.6099   5.6107   5.6770   5.8107   5.9620
     5.9624   6.0964   6.1378   6.1828   6.1895   6.1900   6.3002   6.3009
     6.5284   6.5353   6.5362   6.5647   6.6483   6.6491   6.6888   6.6892
     6.6965   6.7865   6.9391   6.9396   7.0902   7.0908   7.2131   7.2139
     7.2711   7.2715   7.2725   7.3057   7.3789   7.3790   7.4008   7.4013
     7.4232   7.4235   7.4403   7.5850   7.5933   7.5944   8.0442   8.0838
     8.1050   8.1129   8.1138   8.1272   8.1278   8.2056   8.2248   8.3116
     8.3126   8.3341   8.3492   8.3500   8.4022   8.4237   8.4244   8.4386
     8.4825   8.4833   8.5216   8.6254   8.7900   8.8617   8.8627   8.9261
     8.9270   8.9812   8.9819   9.0057   9.0068   9.0716   9.0879   9.1081
     9.2925   9.2930   9.3219   9.3223   9.3807   9.4121   9.4408   9.4659
     9.4672   9.5002   9.5010   9.6128   9.6151   9.6343   9.6348   9.6743
     9.6747   9.7491   9.8835   9.8849   9.9587   9.9594  10.0486  10.0501
    10.0751  10.4571  10.4581  10.5747  10.6447  10.6453  10.6691  10.6696
    10.6710  10.6717  10.7919  10.7928  10.8322  10.8354  10.8365  10.8507
    10.8514  10.8778  10.9065  11.0392  11.1892  11.3198

          k =-0.5000 0.0000 0.1957 ( 98374 PWs)   bands (ev):

   -62.8116 -62.8112 -62.8106 -62.8101 -62.8101 -62.8100 -62.8083 -62.8079
   -62.8078 -62.8078 -62.8076 -62.8072 -62.8069 -62.8069 -62.8069 -62.8066
   -62.8065 -62.8057 -36.2017 -36.2017 -36.1990 -36.1989 -36.1987 -36.1987
   -36.1986 -36.1986 -36.1985 -36.1985 -36.1985 -36.1983 -36.1983 -36.1982
   -36.1982 -36.1982 -36.1982 -36.1982 -36.1981 -36.1981 -36.1981 -36.1980
   -36.1980 -36.1980 -36.1980 -36.1980 -36.1979 -36.1979 -36.1979 -36.1978
   -36.1978 -36.1978 -36.1977 -36.1977 -36.1977 -36.1976 -36.1975 -36.1975
   -36.1975 -36.1975 -36.1974 -36.1974 -36.1973 -36.1972 -36.1972 -36.1971
   -36.1969 -36.1969 -36.1969 -36.1969 -36.1968 -36.1967 -36.1966 -36.1964
   -36.1964 -36.1963 -36.1963 -36.1963 -36.1962 -36.1961 -36.1961 -36.1961
   -36.1961 -36.1960 -36.1960 -36.1959 -36.1959 -36.1958 -36.1957 -36.1957
   -36.1955 -36.1955 -36.1583 -36.1580 -36.1563 -36.1563 -36.1561 -36.1561
   -36.1560 -36.1559 -36.1557 -36.1557 -36.1557 -36.1557 -36.1556 -36.1556
   -36.1555 -36.1555 -36.1555 -36.1555 -36.1555 -36.1554 -36.1554 -36.1554
   -36.1553 -36.1553 -36.1553 -36.1552 -36.1552 -36.1551 -36.1551 -36.1551
   -36.1551 -36.1550 -36.1550 -36.1550 -36.1550 -36.1549 -36.1549 -36.1548
   -36.1548 -36.1548 -36.1548 -36.1548 -36.1547 -36.1547 -36.1547 -36.1547
   -36.1546 -36.1546 -36.1546 -36.1545 -36.1545 -36.1545 -36.1544 -36.1543
   -36.1543 -36.1542 -36.1542 -36.1542 -36.1541 -36.1541 -36.1540 -36.1540
   -36.1539 -36.1539 -36.1539 -36.1538 -36.1538 -36.1538 -36.1537 -36.1536
   -36.1536 -36.1535 -36.1398 -36.1388 -36.1386 -36.1384 -36.1383 -36.1382
   -36.1381 -36.1381 -36.1380 -36.1379 -36.1379 -36.1377 -36.1376 -36.1375
   -36.1374 -36.1374 -36.1373 -36.1373 -36.1363 -36.1360 -36.1359 -36.1356
   -36.1355 -36.1354 -36.1354 -36.1353 -36.1352 -36.1351 -36.1350 -36.1348
   -36.1348 -36.1348 -36.1346 -36.1346 -36.1345 -36.1345 -27.0841 -27.0839
   -27.0835 -27.0835 -27.0775 -27.0771 -27.0625 -27.0621 -27.0534 -27.0531
   -27.0528 -27.0528 -27.0046 -27.0042 -27.0016 -27.0014 -27.0010 -27.0010
   -26.9999 -26.9995 -26.9854 -26.9852 -26.9849 -26.9849 -26.9830 -26.9827
   -26.9825 -26.9824 -26.9708 -26.9704 -26.9589 -26.9587 -26.9584 -26.9584
   -26.9569 -26.9566 -26.9506 -26.9501 -26.9501 -26.9501 -26.9500 -26.9496
   -26.9376 -26.9371 -26.9371 -26.9371 -26.9330 -26.9326 -26.9323 -26.9323
   -26.9323 -26.9321 -26.9307 -26.9306  -2.8523  -2.7339  -2.5396  -2.5383
    -2.4268  -2.4253  -1.8112  -1.8098  -1.7511  -1.7258  -1.7243  -1.5972
    -1.5971  -1.5596  -1.4977  -1.4755  -1.4742  -1.4367  -1.4279  -1.4276
    -1.4213  -1.4201  -1.3595  -1.3195  -1.2433  -1.2429  -1.1366  -1.1361
    -1.0902  -1.0892  -1.0890  -1.0309  -1.0303  -1.0267  -1.0196  -0.9846
     5.4600   5.4607   5.5753   5.6099   5.6107   5.6770   5.8107   5.9619
     5.9624   6.0964   6.1379   6.1827   6.1895   6.1900   6.3002   6.3008
     6.5285   6.5355   6.5362   6.5647   6.6484   6.6491   6.6886   6.6893
     6.6965   6.7864   6.9392   6.9397   7.0903   7.0905   7.2131   7.2141
     7.2710   7.2716   7.2725   7.3055   7.3789   7.3791   7.4007   7.4012
     7.4232   7.4234   7.4405   7.5853   7.5933   7.5941   8.0440   8.0837
     8.1051   8.1131   8.1138   8.1271   8.1277   8.2052   8.2247   8.3118
     8.3126   8.3344   8.3491   8.3500   8.4024   8.4235   8.4244   8.4384
     8.4827   8.4833   8.5218   8.6255   8.7898   8.8616   8.8628   8.9259
     8.9269   8.9815   8.9818   9.0059   9.0068   9.0715   9.0879   9.1079
     9.2925   9.2929   9.3220   9.3224   9.3806   9.4123   9.4408   9.4660
     9.4669   9.5003   9.5013   9.6130   9.6150   9.6345   9.6348   9.6741
     9.6745   9.7488   9.8833   9.8846   9.9588   9.9597  10.0485  10.0500
    10.0750  10.4570  10.4582  10.5750  10.6445  10.6452  10.6692  10.6697
    10.6708  10.6719  10.7920  10.7927  10.8321  10.8356  10.8362  10.8507
    10.8517  10.8779  10.9065  11.0391  11.1888  11.3200

          k =-0.2500 0.1443 0.1957 ( 98372 PWs)   bands (ev):

   -62.8121 -62.8119 -62.8100 -62.8096 -62.8092 -62.8088 -62.8087 -62.8087
   -62.8080 -62.8079 -62.8076 -62.8076 -62.8073 -62.8073 -62.8065 -62.8065
   -62.8064 -62.8056 -36.2017 -36.2017 -36.1991 -36.1989 -36.1988 -36.1988
   -36.1987 -36.1987 -36.1986 -36.1986 -36.1985 -36.1984 -36.1984 -36.1983
   -36.1983 -36.1983 -36.1982 -36.1982 -36.1982 -36.1981 -36.1981 -36.1981
   -36.1981 -36.1981 -36.1980 -36.1980 -36.1979 -36.1979 -36.1978 -36.1978
   -36.1977 -36.1977 -36.1977 -36.1976 -36.1976 -36.1976 -36.1975 -36.1975
   -36.1975 -36.1973 -36.1972 -36.1971 -36.1970 -36.1970 -36.1968 -36.1968
   -36.1968 -36.1968 -36.1967 -36.1966 -36.1966 -36.1966 -36.1966 -36.1965
   -36.1965 -36.1964 -36.1964 -36.1963 -36.1963 -36.1962 -36.1961 -36.1961
   -36.1961 -36.1961 -36.1961 -36.1960 -36.1960 -36.1959 -36.1958 -36.1958
   -36.1958 -36.1955 -36.1583 -36.1580 -36.1564 -36.1564 -36.1560 -36.1560
   -36.1559 -36.1559 -36.1559 -36.1558 -36.1558 -36.1557 -36.1556 -36.1556
   -36.1555 -36.1555 -36.1554 -36.1554 -36.1554 -36.1554 -36.1553 -36.1553
   -36.1553 -36.1552 -36.1552 -36.1552 -36.1552 -36.1551 -36.1551 -36.1551
   -36.1550 -36.1550 -36.1550 -36.1550 -36.1549 -36.1549 -36.1549 -36.1549
   -36.1549 -36.1548 -36.1548 -36.1548 -36.1548 -36.1548 -36.1547 -36.1547
   -36.1547 -36.1546 -36.1546 -36.1545 -36.1545 -36.1544 -36.1544 -36.1544
   -36.1543 -36.1543 -36.1543 -36.1542 -36.1541 -36.1541 -36.1541 -36.1541
   -36.1539 -36.1539 -36.1538 -36.1538 -36.1537 -36.1537 -36.1537 -36.1536
   -36.1536 -36.1535 -36.1398 -36.1389 -36.1385 -36.1384 -36.1383 -36.1382
   -36.1381 -36.1380 -36.1379 -36.1379 -36.1378 -36.1377 -36.1377 -36.1375
   -36.1375 -36.1374 -36.1373 -36.1372 -36.1364 -36.1359 -36.1358 -36.1358
   -36.1355 -36.1354 -36.1353 -36.1352 -36.1351 -36.1350 -36.1350 -36.1350
   -36.1348 -36.1348 -36.1347 -36.1347 -36.1345 -36.1344 -27.0797 -27.0792
   -27.0668 -27.0665 -27.0662 -27.0662 -27.0648 -27.0644 -27.0642 -27.0642
   -27.0367 -27.0363 -27.0361 -27.0361 -27.0191 -27.0190 -27.0186 -27.0186
   -27.0166 -27.0162 -26.9778 -26.9778 -26.9774 -26.9774 -26.9751 -26.9747
   -26.9690 -26.9690 -26.9686 -26.9686 -26.9606 -26.9603 -26.9602 -26.9598
   -26.9528 -26.9524 -26.9476 -26.9474 -26.9452 -26.9448 -26.9429 -26.9428
   -26.9426 -26.9426 -26.9364 -26.9363 -26.9361 -26.9361 -26.9345 -26.9343
   -26.9298 -26.9297 -26.9296 -26.9296  -3.0218  -2.9013  -2.3967  -2.2873
    -2.1375  -2.1360  -2.0366  -2.0350  -1.8348  -1.7390  -1.7375  -1.6593
    -1.6578  -1.6320  -1.6141  -1.5455  -1.5283  -1.4022  -1.4018  -1.3700
    -1.2970  -1.2955  -1.2660  -1.2648  -1.2645  -1.2639  -1.2127  -1.2123
    -1.1573  -1.1162  -1.1157  -1.0784  -0.9897  -0.9890  -0.9556  -0.9550
     5.3566   5.5243   5.6787   5.8246   5.8251   5.9744   5.9758   5.9764
     6.0686   6.0694   6.0948   6.1428   6.1437   6.2563   6.2570   6.4157
     6.4166   6.5091   6.5097   6.5501   6.5506   6.5940   6.7632   6.7915
     6.7925   6.8179   6.8881   6.8888   6.9353   6.9358   7.0818   7.0822
     7.0848   7.1920   7.1947   7.2105   7.2108   7.3693   7.3700   7.5158
     7.5174   7.5235   7.5239   7.5715   7.6287   7.6289   7.7463   7.7467
     7.8008   7.8018   7.8664   7.9581   7.9590   8.1422   8.2532   8.2541
     8.3614   8.3623   8.4081   8.4094   8.4102   8.4606   8.4620   8.4651
     8.5181   8.5189   8.5543   8.5721   8.6656   8.6667   8.7861   8.9246
     8.9399   8.9768   9.0250   9.3728   9.3738   9.4441   9.4456   9.4594
     9.4607   9.4615   9.4775   9.4903   9.4911   9.5130   9.5198   9.5205
     9.5239   9.5383   9.5387   9.6453   9.6459   9.6837   9.7252   9.7474
     9.7830   9.8327   9.8335   9.8411   9.8417   9.9837  10.0126  10.1220
    10.1278  10.1285  10.2228  10.3380  10.4893  10.4927  10.5151  10.5156
    10.5299  10.5305  10.5812  10.5814  10.6094  10.6098  10.6265  10.6889
    11.0762  11.0764  11.1795  11.1798  11.3668  11.6376

          k =-0.2500-0.1443-0.1957 ( 98372 PWs)   bands (ev):

   -62.8122 -62.8119 -62.8100 -62.8096 -62.8091 -62.8090 -62.8087 -62.8087
   -62.8081 -62.8078 -62.8076 -62.8076 -62.8073 -62.8073 -62.8065 -62.8065
   -62.8063 -62.8057 -36.2017 -36.2017 -36.1991 -36.1989 -36.1988 -36.1988
   -36.1987 -36.1987 -36.1987 -36.1985 -36.1985 -36.1984 -36.1984 -36.1983
   -36.1983 -36.1983 -36.1982 -36.1982 -36.1982 -36.1982 -36.1982 -36.1981
   -36.1981 -36.1981 -36.1980 -36.1980 -36.1979 -36.1979 -36.1978 -36.1978
   -36.1977 -36.1977 -36.1977 -36.1976 -36.1976 -36.1976 -36.1975 -36.1975
   -36.1975 -36.1973 -36.1972 -36.1971 -36.1970 -36.1970 -36.1969 -36.1968
   -36.1968 -36.1967 -36.1966 -36.1966 -36.1966 -36.1966 -36.1966 -36.1965
   -36.1965 -36.1964 -36.1964 -36.1963 -36.1963 -36.1962 -36.1961 -36.1961
   -36.1961 -36.1961 -36.1961 -36.1960 -36.1960 -36.1959 -36.1958 -36.1958
   -36.1958 -36.1955 -36.1583 -36.1580 -36.1564 -36.1564 -36.1560 -36.1559
   -36.1559 -36.1559 -36.1559 -36.1559 -36.1557 -36.1557 -36.1557 -36.1556
   -36.1555 -36.1555 -36.1554 -36.1554 -36.1554 -36.1554 -36.1553 -36.1553
   -36.1553 -36.1552 -36.1552 -36.1552 -36.1552 -36.1552 -36.1551 -36.1551
   -36.1550 -36.1550 -36.1550 -36.1550 -36.1549 -36.1549 -36.1549 -36.1549
   -36.1549 -36.1548 -36.1548 -36.1548 -36.1548 -36.1548 -36.1547 -36.1547
   -36.1547 -36.1546 -36.1546 -36.1545 -36.1545 -36.1544 -36.1544 -36.1543
   -36.1543 -36.1543 -36.1543 -36.1542 -36.1541 -36.1541 -36.1541 -36.1540
   -36.1539 -36.1539 -36.1538 -36.1538 -36.1537 -36.1537 -36.1537 -36.1536
   -36.1536 -36.1535 -36.1398 -36.1389 -36.1385 -36.1384 -36.1383 -36.1382
   -36.1381 -36.1380 -36.1379 -36.1379 -36.1378 -36.1377 -36.1377 -36.1375
   -36.1375 -36.1374 -36.1373 -36.1372 -36.1364 -36.1360 -36.1358 -36.1357
   -36.1355 -36.1354 -36.1352 -36.1352 -36.1352 -36.1350 -36.1350 -36.1350
   -36.1348 -36.1348 -36.1347 -36.1347 -36.1345 -36.1344 -27.0796 -27.0792
   -27.0668 -27.0666 -27.0662 -27.0662 -27.0648 -27.0644 -27.0642 -27.0642
   -27.0366 -27.0364 -27.0361 -27.0361 -27.0191 -27.0189 -27.0186 -27.0186
   -27.0166 -27.0162 -26.9779 -26.9776 -26.9774 -26.9774 -26.9751 -26.9747
   -26.9691 -26.9687 -26.9686 -26.9686 -26.9606 -26.9603 -26.9602 -26.9598
   -26.9528 -26.9524 -26.9476 -26.9474 -26.9452 -26.9448 -26.9428 -26.9428
   -26.9426 -26.9426 -26.9364 -26.9363 -26.9361 -26.9361 -26.9345 -26.9343
   -26.9298 -26.9297 -26.9296 -26.9296  -3.0218  -2.9013  -2.3968  -2.2874
    -2.1374  -2.1361  -2.0364  -2.0350  -1.8348  -1.7388  -1.7375  -1.6592
    -1.6578  -1.6320  -1.6143  -1.5457  -1.5282  -1.4023  -1.4018  -1.3699
    -1.2969  -1.2955  -1.2662  -1.2648  -1.2646  -1.2640  -1.2128  -1.2123
    -1.1571  -1.1163  -1.1157  -1.0782  -0.9896  -0.9891  -0.9557  -0.9550
     5.3566   5.5245   5.6789   5.8247   5.8249   5.9745   5.9758   5.9762
     6.0685   6.0694   6.0948   6.1428   6.1436   6.2565   6.2570   6.4158
     6.4164   6.5090   6.5098   6.5503   6.5504   6.5937   6.7631   6.7914
     6.7926   6.8176   6.8884   6.8888   6.9352   6.9357   7.0819   7.0823
     7.0848   7.1916   7.1948   7.2104   7.2110   7.3698   7.3701   7.5162
     7.5174   7.5233   7.5238   7.5712   7.6285   7.6292   7.7465   7.7468
     7.8007   7.8017   7.8669   7.9579   7.9589   8.1424   8.2537   8.2544
     8.3620   8.3625   8.4077   8.4092   8.4099   8.4614   8.4621   8.4647
     8.5182   8.5188   8.5541   8.5719   8.6658   8.6664   8.7862   8.9249
     8.9401   8.9761   9.0243   9.3727   9.3732   9.4443   9.4456   9.4595
     9.4608   9.4616   9.4776   9.4901   9.4912   9.5141   9.5189   9.5198
     9.5239   9.5380   9.5391   9.6454   9.6456   9.6844   9.7254   9.7463
     9.7820   9.8325   9.8332   9.8410   9.8428   9.9846  10.0125  10.1219
    10.1277  10.1283  10.2227  10.3385  10.4897  10.4927  10.5147  10.5152
    10.5299  10.5309  10.5806  10.5810  10.6092  10.6100  10.6270  10.6893
    11.0761  11.0764  11.1794  11.1798  11.3671  11.6376

          k = 0.2500 0.1443-0.1957 ( 98372 PWs)   bands (ev):

   -62.8122 -62.8119 -62.8100 -62.8096 -62.8091 -62.8090 -62.8087 -62.8087
   -62.8081 -62.8078 -62.8076 -62.8076 -62.8073 -62.8073 -62.8065 -62.8065
   -62.8063 -62.8057 -36.2017 -36.2017 -36.1991 -36.1989 -36.1988 -36.1988
   -36.1987 -36.1987 -36.1987 -36.1985 -36.1985 -36.1984 -36.1984 -36.1983
   -36.1983 -36.1983 -36.1982 -36.1982 -36.1982 -36.1982 -36.1982 -36.1981
   -36.1981 -36.1981 -36.1980 -36.1980 -36.1979 -36.1979 -36.1978 -36.1978
   -36.1977 -36.1977 -36.1977 -36.1976 -36.1976 -36.1976 -36.1975 -36.1975
   -36.1975 -36.1973 -36.1972 -36.1971 -36.1970 -36.1970 -36.1969 -36.1968
   -36.1968 -36.1967 -36.1966 -36.1966 -36.1966 -36.1966 -36.1966 -36.1965
   -36.1965 -36.1964 -36.1964 -36.1963 -36.1963 -36.1962 -36.1961 -36.1961
   -36.1961 -36.1961 -36.1961 -36.1960 -36.1960 -36.1959 -36.1958 -36.1958
   -36.1958 -36.1955 -36.1583 -36.1580 -36.1564 -36.1564 -36.1560 -36.1559
   -36.1559 -36.1559 -36.1559 -36.1559 -36.1557 -36.1557 -36.1557 -36.1556
   -36.1555 -36.1555 -36.1555 -36.1554 -36.1554 -36.1554 -36.1553 -36.1553
   -36.1553 -36.1553 -36.1552 -36.1552 -36.1552 -36.1552 -36.1551 -36.1551
   -36.1550 -36.1550 -36.1550 -36.1550 -36.1549 -36.1549 -36.1549 -36.1549
   -36.1549 -36.1548 -36.1548 -36.1548 -36.1548 -36.1548 -36.1547 -36.1547
   -36.1547 -36.1546 -36.1546 -36.1545 -36.1545 -36.1544 -36.1544 -36.1543
   -36.1543 -36.1543 -36.1543 -36.1542 -36.1541 -36.1541 -36.1541 -36.1540
   -36.1539 -36.1539 -36.1538 -36.1538 -36.1537 -36.1537 -36.1537 -36.1536
   -36.1536 -36.1535 -36.1398 -36.1389 -36.1385 -36.1384 -36.1383 -36.1382
   -36.1381 -36.1380 -36.1379 -36.1379 -36.1378 -36.1377 -36.1377 -36.1375
   -36.1375 -36.1374 -36.1373 -36.1372 -36.1364 -36.1360 -36.1358 -36.1357
   -36.1355 -36.1354 -36.1352 -36.1352 -36.1352 -36.1350 -36.1350 -36.1350
   -36.1348 -36.1348 -36.1347 -36.1347 -36.1345 -36.1344 -27.0796 -27.0792
   -27.0668 -27.0666 -27.0662 -27.0662 -27.0648 -27.0644 -27.0642 -27.0642
   -27.0366 -27.0364 -27.0361 -27.0361 -27.0191 -27.0189 -27.0186 -27.0186
   -27.0166 -27.0162 -26.9779 -26.9776 -26.9774 -26.9774 -26.9751 -26.9747
   -26.9691 -26.9687 -26.9686 -26.9686 -26.9606 -26.9603 -26.9602 -26.9598
   -26.9528 -26.9524 -26.9476 -26.9474 -26.9452 -26.9448 -26.9428 -26.9428
   -26.9426 -26.9426 -26.9364 -26.9363 -26.9361 -26.9361 -26.9345 -26.9343
   -26.9298 -26.9297 -26.9296 -26.9296  -3.0218  -2.9013  -2.3968  -2.2874
    -2.1374  -2.1361  -2.0364  -2.0350  -1.8348  -1.7388  -1.7375  -1.6592
    -1.6578  -1.6320  -1.6143  -1.5457  -1.5282  -1.4023  -1.4018  -1.3699
    -1.2969  -1.2955  -1.2661  -1.2648  -1.2645  -1.2640  -1.2128  -1.2123
    -1.1571  -1.1163  -1.1157  -1.0782  -0.9897  -0.9890  -0.9556  -0.9550
     5.3566   5.5245   5.6790   5.8247   5.8250   5.9744   5.9759   5.9761
     6.0685   6.0693   6.0947   6.1427   6.1437   6.2562   6.2570   6.4157
     6.4166   6.5091   6.5096   6.5505   6.5508   6.5937   6.7631   6.7917
     6.7928   6.8176   6.8881   6.8885   6.9356   6.9359   7.0815   7.0820
     7.0847   7.1914   7.1952   7.2103   7.2110   7.3697   7.3702   7.5167
     7.5170   7.5233   7.5238   7.5712   7.6287   7.6291   7.7464   7.7470
     7.8006   7.8016   7.8667   7.9584   7.9591   8.1425   8.2530   8.2539
     8.3619   8.3625   8.4081   8.4096   8.4098   8.4615   8.4620   8.4646
     8.5184   8.5189   8.5540   8.5719   8.6657   8.6663   8.7864   8.9249
     8.9401   8.9760   9.0243   9.3727   9.3737   9.4443   9.4456   9.4599
     9.4607   9.4614   9.4776   9.4903   9.4910   9.5141   9.5195   9.5200
     9.5239   9.5380   9.5387   9.6449   9.6455   9.6839   9.7250   9.7462
     9.7820   9.8328   9.8332   9.8413   9.8424   9.9845  10.0125  10.1218
    10.1275  10.1284  10.2232  10.3386  10.4897  10.4929  10.5150  10.5152
    10.5297  10.5307  10.5805  10.5810  10.6093  10.6101  10.6266  10.6896
    11.0762  11.0765  11.1793  11.1798  11.3669  11.6377

          k = 0.0000-0.2887 0.1957 ( 98372 PWs)   bands (ev):

   -62.8122 -62.8119 -62.8100 -62.8096 -62.8092 -62.8088 -62.8087 -62.8087
   -62.8080 -62.8079 -62.8076 -62.8076 -62.8073 -62.8073 -62.8065 -62.8065
   -62.8064 -62.8057 -36.2017 -36.2017 -36.1990 -36.1989 -36.1989 -36.1988
   -36.1987 -36.1987 -36.1986 -36.1985 -36.1985 -36.1985 -36.1984 -36.1983
   -36.1983 -36.1983 -36.1982 -36.1982 -36.1982 -36.1982 -36.1981 -36.1981
   -36.1981 -36.1981 -36.1980 -36.1980 -36.1979 -36.1978 -36.1978 -36.1978
   -36.1977 -36.1977 -36.1977 -36.1976 -36.1976 -36.1975 -36.1975 -36.1975
   -36.1975 -36.1974 -36.1971 -36.1971 -36.1970 -36.1969 -36.1968 -36.1968
   -36.1968 -36.1968 -36.1967 -36.1967 -36.1966 -36.1966 -36.1966 -36.1966
   -36.1965 -36.1964 -36.1964 -36.1963 -36.1963 -36.1962 -36.1961 -36.1961
   -36.1961 -36.1961 -36.1961 -36.1960 -36.1960 -36.1959 -36.1958 -36.1958
   -36.1958 -36.1955 -36.1583 -36.1580 -36.1564 -36.1564 -36.1560 -36.1560
   -36.1559 -36.1559 -36.1559 -36.1558 -36.1558 -36.1557 -36.1556 -36.1556
   -36.1555 -36.1555 -36.1554 -36.1554 -36.1554 -36.1554 -36.1554 -36.1553
   -36.1553 -36.1553 -36.1552 -36.1552 -36.1552 -36.1552 -36.1551 -36.1551
   -36.1550 -36.1550 -36.1550 -36.1550 -36.1550 -36.1549 -36.1549 -36.1549
   -36.1549 -36.1548 -36.1548 -36.1548 -36.1548 -36.1547 -36.1547 -36.1547
   -36.1547 -36.1546 -36.1546 -36.1545 -36.1545 -36.1544 -36.1544 -36.1544
   -36.1543 -36.1543 -36.1543 -36.1542 -36.1541 -36.1541 -36.1541 -36.1540
   -36.1540 -36.1539 -36.1538 -36.1538 -36.1537 -36.1537 -36.1537 -36.1536
   -36.1536 -36.1535 -36.1398 -36.1389 -36.1385 -36.1384 -36.1383 -36.1382
   -36.1381 -36.1380 -36.1379 -36.1379 -36.1378 -36.1377 -36.1377 -36.1375
   -36.1375 -36.1374 -36.1373 -36.1372 -36.1364 -36.1359 -36.1358 -36.1358
   -36.1355 -36.1353 -36.1353 -36.1352 -36.1352 -36.1350 -36.1350 -36.1350
   -36.1348 -36.1348 -36.1347 -36.1347 -36.1345 -36.1344 -27.0796 -27.0792
   -27.0668 -27.0665 -27.0662 -27.0662 -27.0648 -27.0644 -27.0642 -27.0642
   -27.0367 -27.0364 -27.0361 -27.0361 -27.0191 -27.0189 -27.0186 -27.0186
   -27.0166 -27.0162 -26.9779 -26.9777 -26.9774 -26.9774 -26.9751 -26.9747
   -26.9691 -26.9688 -26.9686 -26.9686 -26.9606 -26.9603 -26.9602 -26.9598
   -26.9528 -26.9524 -26.9476 -26.9474 -26.9452 -26.9448 -26.9429 -26.9428
   -26.9426 -26.9426 -26.9364 -26.9363 -26.9361 -26.9361 -26.9345 -26.9343
   -26.9298 -26.9297 -26.9296 -26.9296  -3.0218  -2.9013  -2.3967  -2.2873
    -2.1376  -2.1360  -2.0366  -2.0349  -1.8348  -1.7390  -1.7375  -1.6593
    -1.6577  -1.6320  -1.6142  -1.5456  -1.5282  -1.4024  -1.4017  -1.3699
    -1.2969  -1.2955  -1.2661  -1.2648  -1.2645  -1.2640  -1.2128  -1.2123
    -1.1572  -1.1163  -1.1156  -1.0783  -0.9896  -0.9890  -0.9556  -0.9550
     5.3566   5.5244   5.6788   5.8246   5.8251   5.9744   5.9758   5.9764
     6.0683   6.0696   6.0948   6.1426   6.1438   6.2563   6.2571   6.4157
     6.4165   6.5090   6.5097   6.5502   6.5505   6.5939   6.7631   6.7915
     6.7926   6.8177   6.8881   6.8889   6.9352   6.9357   7.0817   7.0824
     7.0848   7.1918   7.1947   7.2104   7.2110   7.3696   7.3701   7.5160
     7.5175   7.5233   7.5240   7.5714   7.6286   7.6290   7.7463   7.7469
     7.8004   7.8020   7.8667   7.9576   7.9593   8.1423   8.2537   8.2541
     8.3616   8.3624   8.4077   8.4095   8.4100   8.4609   8.4622   8.4649
     8.5181   8.5190   8.5542   8.5720   8.6656   8.6667   8.7861   8.9248
     8.9400   8.9764   9.0246   9.3727   9.3736   9.4441   9.4457   9.4595
     9.4605   9.4618   9.4776   9.4901   9.4912   9.5135   9.5191   9.5205
     9.5239   9.5381   9.5389   9.6453   9.6458   9.6840   9.7253   9.7469
     9.7825   9.8325   9.8334   9.8410   9.8423   9.9841  10.0126  10.1219
    10.1277  10.1285  10.2228  10.3383  10.4895  10.4926  10.5147  10.5156
    10.5298  10.5308  10.5808  10.5813  10.6092  10.6099  10.6267  10.6891
    11.0761  11.0764  11.1794  11.1798  11.3670  11.6376

          k = 0.0000 0.2887 0.1957 ( 98372 PWs)   bands (ev):

   -62.8122 -62.8119 -62.8100 -62.8096 -62.8092 -62.8088 -62.8087 -62.8087
   -62.8080 -62.8079 -62.8076 -62.8076 -62.8073 -62.8073 -62.8065 -62.8065
   -62.8064 -62.8057 -36.2017 -36.2017 -36.1990 -36.1989 -36.1989 -36.1988
   -36.1987 -36.1987 -36.1986 -36.1985 -36.1985 -36.1985 -36.1984 -36.1983
   -36.1983 -36.1983 -36.1982 -36.1982 -36.1982 -36.1982 -36.1981 -36.1981
   -36.1981 -36.1981 -36.1980 -36.1980 -36.1979 -36.1978 -36.1978 -36.1978
   -36.1977 -36.1977 -36.1977 -36.1976 -36.1976 -36.1975 -36.1975 -36.1975
   -36.1975 -36.1974 -36.1971 -36.1971 -36.1970 -36.1969 -36.1968 -36.1968
   -36.1968 -36.1968 -36.1967 -36.1967 -36.1966 -36.1966 -36.1966 -36.1966
   -36.1965 -36.1964 -36.1964 -36.1963 -36.1963 -36.1962 -36.1961 -36.1961
   -36.1961 -36.1961 -36.1961 -36.1960 -36.1960 -36.1959 -36.1958 -36.1958
   -36.1958 -36.1955 -36.1583 -36.1580 -36.1564 -36.1564 -36.1560 -36.1560
   -36.1559 -36.1559 -36.1559 -36.1558 -36.1557 -36.1557 -36.1556 -36.1556
   -36.1555 -36.1555 -36.1554 -36.1554 -36.1554 -36.1554 -36.1553 -36.1553
   -36.1553 -36.1552 -36.1552 -36.1552 -36.1552 -36.1552 -36.1551 -36.1551
   -36.1550 -36.1550 -36.1550 -36.1550 -36.1550 -36.1549 -36.1549 -36.1549
   -36.1549 -36.1548 -36.1548 -36.1548 -36.1548 -36.1548 -36.1547 -36.1547
   -36.1547 -36.1546 -36.1546 -36.1545 -36.1545 -36.1544 -36.1544 -36.1544
   -36.1543 -36.1543 -36.1543 -36.1542 -36.1541 -36.1541 -36.1541 -36.1540
   -36.1540 -36.1539 -36.1538 -36.1538 -36.1537 -36.1537 -36.1537 -36.1536
   -36.1536 -36.1535 -36.1398 -36.1389 -36.1385 -36.1384 -36.1383 -36.1382
   -36.1381 -36.1380 -36.1379 -36.1379 -36.1378 -36.1377 -36.1377 -36.1375
   -36.1375 -36.1374 -36.1373 -36.1372 -36.1364 -36.1359 -36.1358 -36.1358
   -36.1355 -36.1353 -36.1353 -36.1352 -36.1352 -36.1350 -36.1350 -36.1350
   -36.1348 -36.1348 -36.1347 -36.1347 -36.1345 -36.1344 -27.0796 -27.0792
   -27.0668 -27.0665 -27.0662 -27.0662 -27.0648 -27.0644 -27.0642 -27.0642
   -27.0367 -27.0364 -27.0361 -27.0361 -27.0191 -27.0189 -27.0186 -27.0186
   -27.0166 -27.0162 -26.9779 -26.9777 -26.9774 -26.9774 -26.9751 -26.9747
   -26.9691 -26.9688 -26.9686 -26.9686 -26.9606 -26.9603 -26.9602 -26.9598
   -26.9528 -26.9524 -26.9476 -26.9474 -26.9452 -26.9448 -26.9429 -26.9428
   -26.9426 -26.9426 -26.9364 -26.9363 -26.9361 -26.9361 -26.9345 -26.9343
   -26.9298 -26.9297 -26.9296 -26.9296  -3.0218  -2.9013  -2.3967  -2.2874
    -2.1376  -2.1360  -2.0366  -2.0349  -1.8348  -1.7390  -1.7375  -1.6593
    -1.6577  -1.6320  -1.6142  -1.5456  -1.5282  -1.4024  -1.4017  -1.3699
    -1.2969  -1.2955  -1.2661  -1.2648  -1.2645  -1.2640  -1.2128  -1.2123
    -1.1572  -1.1163  -1.1156  -1.0783  -0.9896  -0.9890  -0.9556  -0.9550
     5.3566   5.5244   5.6788   5.8246   5.8252   5.9744   5.9758   5.9762
     6.0683   6.0696   6.0949   6.1426   6.1439   6.2562   6.2569   6.4157
     6.4165   6.5090   6.5097   6.5503   6.5508   6.5937   6.7632   6.7916
     6.7928   6.8177   6.8881   6.8884   6.9355   6.9360   7.0817   7.0819
     7.0846   7.1917   7.1953   7.2102   7.2110   7.3696   7.3702   7.5164
     7.5172   7.5229   7.5239   7.5713   7.6285   7.6292   7.7462   7.7469
     7.8005   7.8018   7.8665   7.9581   7.9594   8.1423   8.2527   8.2545
     8.3613   8.3625   8.4083   8.4093   8.4099   8.4611   8.4621   8.4649
     8.5183   8.5190   8.5541   8.5720   8.6654   8.6667   8.7862   8.9248
     8.9400   8.9764   9.0247   9.3727   9.3736   9.4443   9.4457   9.4595
     9.4605   9.4619   9.4775   9.4899   9.4911   9.5137   9.5192   9.5201
     9.5239   9.5381   9.5389   9.6450   9.6461   9.6839   9.7251   9.7469
     9.7825   9.8327   9.8334   9.8413   9.8424   9.9841  10.0126  10.1219
    10.1274  10.1281  10.2231  10.3383  10.4895  10.4926  10.5152  10.5156
    10.5297  10.5306  10.5806  10.5814  10.6093  10.6101  10.6263  10.6894
    11.0762  11.0765  11.1794  11.1798  11.3669  11.6376

     highest occupied level (ev):    11.6377

!    total energy              =  -11463.67592847 Ry
     estimated scf accuracy    <          3.7E-11 Ry

     The total energy is the sum of the following terms:
     one-electron contribution =   -6099.16447494 Ry
     hartree contribution      =    3271.80597462 Ry
     xc contribution           =   -2338.91480143 Ry
     ewald contribution        =   -6295.48620322 Ry
     Dispersion Correction     =      -1.91642350 Ry

     convergence has been achieved in  26 iterations

     Forces acting on atoms (cartesian axes, Ry/au):

     atom    1 type  1   force =     0.00000345    0.00000016   -0.00002447
     atom    2 type  1   force =    -0.00000022   -0.00000392    0.00000277
     atom    3 type  1   force =     0.00000224   -0.00000295    0.00000184
     atom    4 type  1   force =     0.00000351    0.00000131   -0.00000037
     atom    5 type  1   force =    -0.00000384   -0.00000051    0.00000497
     atom    6 type  1   force =    -0.00000027   -0.00000019   -0.00000077
     atom    7 type  1   force =     0.00000410    0.00000145    0.00000005
     atom    8 type  1   force =    -0.00000180   -0.00000006   -0.00000479
     atom    9 type  1   force =    -0.00000083    0.00000402    0.00000455
     atom   10 type  1   force =     0.00181028   -0.00087659    0.00192864
     atom   11 type  1   force =     0.00000811    0.00002252    0.00005833
     atom   12 type  1   force =     0.00002238   -0.00015503    0.00060790
     atom   13 type  1   force =     0.00029146    0.00102354    0.00126015
     atom   14 type  1   force =     0.00002087    0.00005916    0.00009420
     atom   15 type  1   force =    -0.00000872   -0.00004152    0.00003045
     atom   16 type  1   force =    -0.00001337   -0.00001230    0.00006086
     atom   17 type  1   force =     0.00002571   -0.00001021    0.00005563
     atom   18 type  1   force =    -0.00008102   -0.00001716    0.00006215
     atom   19 type  2   force =    -0.00246298    0.00001028   -0.00353508
     atom   20 type  2   force =     0.00014531   -0.00000109    0.00060890
     atom   21 type  2   force =     0.00020687    0.00001042    0.00056129
     atom   22 type  2   force =     0.00003529   -0.00012273    0.00057026
     atom   23 type  2   force =     0.00001165    0.00006457    0.00059988
     atom   24 type  2   force =    -0.00000540   -0.00000056    0.00068637
     atom   25 type  2   force =     0.00000460   -0.00005791    0.00059394
     atom   26 type  2   force =    -0.00000550   -0.00000060    0.00068649
     atom   27 type  2   force =     0.00004249    0.00010700    0.00057591
     atom   28 type  2   force =    -0.00001984    0.00001042   -0.00066723
     atom   29 type  2   force =     0.00000114   -0.00000133   -0.00068979
     atom   30 type  2   force =     0.00003945    0.00002439   -0.00062144
     atom   31 type  2   force =    -0.00000226   -0.00003429   -0.00064439
     atom   32 type  2   force =    -0.00000229    0.00000005   -0.00069398
     atom   33 type  2   force =     0.00000168   -0.00000225   -0.00069061
     atom   34 type  2   force =     0.00000196    0.00000021   -0.00068863
     atom   35 type  2   force =    -0.00000094    0.00000094   -0.00069067
     atom   36 type  2   force =    -0.00000230    0.00000200   -0.00069203
     atom   37 type  2   force =     0.00000003    0.00000031    0.00069007
     atom   38 type  2   force =    -0.00000112    0.00000030    0.00069075
     atom   39 type  2   force =    -0.00000001    0.00000025    0.00068984
     atom   40 type  2   force =     0.00000008    0.00000007    0.00069009
     atom   41 type  2   force =     0.00000101    0.00000089    0.00068899
     atom   42 type  2   force =    -0.00000144    0.00000061    0.00069060
     atom   43 type  2   force =    -0.00000034    0.00000023    0.00069074
     atom   44 type  2   force =    -0.00000034   -0.00000067    0.00069057
     atom   45 type  2   force =    -0.00000048   -0.00000163    0.00068957
     atom   46 type  2   force =    -0.00005059   -0.00000003   -0.00008824
     atom   47 type  2   force =     0.00007090    0.00006044   -0.00065455
     atom   48 type  2   force =    -0.00000543    0.00000602   -0.00071464
     atom   49 type  2   force =    -0.00007107    0.00001218   -0.00067740
     atom   50 type  2   force =     0.00002471    0.00002155   -0.00069253
     atom   51 type  2   force =     0.00000443   -0.00000044   -0.00071299
     atom   52 type  2   force =    -0.00003199   -0.00010999   -0.00064693
     atom   53 type  2   force =     0.00000444   -0.00000062   -0.00071304
     atom   54 type  2   force =    -0.00001377    0.00000931   -0.00072215

     Total force =     0.006697     Total SCF correction =     0.000031


     Computing stress (Cartesian axis) and pressure

          total   stress  (Ry/bohr**3)                   (kbar)     P=      -48.03
  -0.00040348  -0.00000020   0.00000071          -59.35       -0.03        0.10
  -0.00000020  -0.00040348  -0.00000000           -0.03      -59.35       -0.00
   0.00000071  -0.00000000  -0.00017247            0.10       -0.00      -25.37


     Writing all to output data dir ./WSe.save/ :
     XML data file, charge density, pseudopotentials, collected wavefunctions
 
     init_run     :     11.80s CPU     13.18s WALL (       1 calls)
     electrons    :    898.31s CPU   1054.95s WALL (       1 calls)
     forces       :      8.30s CPU      8.71s WALL (       1 calls)
     force_london :      0.04s CPU      0.04s WALL (       1 calls)
     stress       :    125.96s CPU    132.62s WALL (       1 calls)
     stres_london :      0.04s CPU      0.04s WALL (       1 calls)

     Called by init_run:
     wfcinit      :     10.80s CPU     12.05s WALL (       1 calls)
     potinit      :      0.07s CPU      0.10s WALL (       1 calls)
     hinit0       :      0.46s CPU      0.51s WALL (       1 calls)

     Called by electrons:
     c_bands      :    844.87s CPU    993.45s WALL (      27 calls)
     sum_band     :     50.67s CPU     57.81s WALL (      27 calls)
     v_of_rho     :      1.89s CPU      2.09s WALL (      27 calls)
     mix_rho      :      0.71s CPU      0.77s WALL (      27 calls)
     energy_londo :      0.05s CPU      0.05s WALL (       1 calls)

     Called by c_bands:
     init_us_2    :     10.90s CPU     11.03s WALL (     171 calls)
     init_us_2:cp :     10.89s CPU     11.02s WALL (     171 calls)
     cegterg      :    807.49s CPU    943.14s WALL (      81 calls)

     Called by *egterg:
     cdiaghg      :     49.80s CPU    127.11s WALL (     482 calls)
     h_psi        :    468.25s CPU    502.42s WALL (     488 calls)
     g_psi        :      1.94s CPU      1.98s WALL (     404 calls)

     Called by h_psi:
     h_psi:calbec :    121.27s CPU    127.39s WALL (     488 calls)
     vloc_psi     :    234.19s CPU    261.06s WALL (     488 calls)
     add_vuspsi   :    108.01s CPU    108.57s WALL (     488 calls)

     General routines
     calbec       :    129.23s CPU    138.46s WALL (     503 calls)
     fft          :      1.39s CPU      1.57s WALL (     295 calls)
     ffts         :      0.07s CPU      0.10s WALL (      27 calls)
     fftw         :    242.32s CPU    270.83s WALL (  208814 calls)
 
     Parallel routines
     fft_scatt_xy :     32.60s CPU     35.81s WALL (  209136 calls)
     fft_scatt_yz :    133.09s CPU    151.28s WALL (  209136 calls)
 
     PWSCF        :  17m26.50s CPU  20m19.27s WALL

 
   This run was terminated on:  17:50:37   5Nov2024            

=------------------------------------------------------------------------------=
   JOB DONE.
=------------------------------------------------------------------------------=
