
     Program PWSCF v.7.3 starts on  5Nov2024 at 17: 9:19 

     This program is part of the open-source Quantum ESPRESSO suite
     for quantum simulation of materials; please cite
         "P. Giannozzi et al., J. Phys.:Condens. Matter 21 395502 (2009);
         "P. Giannozzi et al., J. Phys.:Condens. Matter 29 465901 (2017);
         "P. Giannozzi et al., J. Chem. Phys. 152 154105 (2020);
          URL http://www.quantum-espresso.org", 
     in publications or presentations arising from this work. More details at
     http://www.quantum-espresso.org/quote

     Parallel version (MPI & OpenMP), running on     256 processor cores
     Number of MPI processes:               256
     Threads/MPI process:                     1

     MPI processes distributed on     1 nodes
     493014 MiB available memory on the printing compute node when the environment starts
 
     Waiting for input...
     Reading input from standard input

     Current dimensions of program PWSCF are:
     Max number of different atomic species (ntypx) = 10
     Max number of k-points (npk) =  40000
     Max angular momentum in pseudopotentials (lmaxx) =  4

     File ./WSe.fire deleted, as requested
 
     K-points division:     npool     =       4
     R & G space division:  proc/nbgrp/npool/nimage =      64
     Subspace diagonalization in iterative solution of the eigenvalue problem:
     one sub-group per band group will be used
     scalapack distributed-memory algorithm (size of sub-group:  4*  4 procs)

 
     Parallelization info
     --------------------
     sticks:   dense  smooth     PW     G-vecs:    dense   smooth      PW
     Min         130     130     33                12298    12298    1625
     Max         131     131     34                12305    12305    1630
     Sum        8353    8353   2173               787269   787269  104197
 
     Using Pencil Decomposition
 


     bravais-lattice index     =            0
     lattice parameter (alat)  =      19.4500  a.u.
     unit-cell volume          =    8142.1067 (a.u.)^3
     number of atoms/cell      =           54
     number of atomic types    =            2
     number of electrons       =       828.00
     number of Kohn-Sham states=          414
     kinetic-energy cutoff     =      80.0000  Ry
     charge density cutoff     =     320.0000  Ry
     scf convergence threshold =      1.0E-10
     mixing beta               =       0.5000
     number of iterations used =            8  plain     mixing
     Exchange-correlation= PBE
                           (   1   4   3   4   0   0   0)

     celldm(1)=  19.450020  celldm(2)=   0.000000  celldm(3)=   0.000000
     celldm(4)=   0.000000  celldm(5)=   0.000000  celldm(6)=   0.000000

     crystal axes: (cart. coord. in units of alat)
               a(1) = (   1.000000   0.000000   0.000000 )  
               a(2) = (  -0.500000   0.866025   0.000000 )  
               a(3) = (   0.000000   0.000000   1.277750 )  

     reciprocal axes: (cart. coord. in units 2 pi/alat)
               b(1) = (  1.000000  0.577350  0.000000 )  
               b(2) = (  0.000000  1.154701  0.000000 )  
               b(3) = (  0.000000  0.000000  0.782626 )  


     PseudoPot. # 1 for W  read from file:
     /users/rkarkee/pbe_pseudo/W.upf
     MD5 check sum: cb94e439a9e4ea809831d6e90c63864e
     Pseudo is Norm-conserving + core correction, Zval = 14.0
     Generated using ONCVPSP code by D. R. Hamann
     Using radial grid of 1396 points,  8 beta functions with: 
                l(1) =   0
                l(2) =   0
                l(3) =   1
                l(4) =   1
                l(5) =   2
                l(6) =   2
                l(7) =   3
                l(8) =   3

     PseudoPot. # 2 for Se read from file:
     /users/rkarkee/pbe_pseudo/Se.upf
     MD5 check sum: 3cc46b3642295b3f4fdae63b742ce36d
     Pseudo is Norm-conserving + core correction, Zval = 16.0
     Generated using ONCVPSP code by D. R. Hamann
     Using radial grid of 1214 points,  6 beta functions with: 
                l(1) =   0
                l(2) =   0
                l(3) =   1
                l(4) =   1
                l(5) =   2
                l(6) =   2

     atomic species   valence    mass     pseudopotential
     W                14.00   183.84000     W ( 1.00)
     Se               16.00    78.96000     Se( 1.00)

     No symmetry found



   Cartesian axes

     site n.     atom                  positions (alat units)
         1        W      tau(   1) = (   0.0006337   0.1924501   0.9591224  )
         2        W      tau(   2) = (   0.3333333   0.1924501   0.9583127  )
         3        W      tau(   3) = (   0.6666667   0.1924501   0.9583127  )
         4        W      tau(   4) = (  -0.1666667   0.4811252   0.9583127  )
         5        W      tau(   5) = (   0.1666667   0.4811252   0.9583127  )
         6        W      tau(   6) = (   0.5000000   0.4811252   0.9583127  )
         7        W      tau(   7) = (  -0.3333333   0.7698004   0.9583127  )
         8        W      tau(   8) = (   0.0000000   0.7698004   0.9583127  )
         9        W      tau(   9) = (   0.3333333   0.7698004   0.9583127  )
        10        W      tau(  10) = (   0.1666667   0.0962250   0.3194376  )
        11        W      tau(  11) = (   0.5000000   0.0962250   0.3194376  )
        12        W      tau(  12) = (   0.8333333   0.0962250   0.3194376  )
        13        W      tau(  13) = (  -0.0000000   0.3849002   0.3194376  )
        14        W      tau(  14) = (   0.3333333   0.3849002   0.3194376  )
        15        W      tau(  15) = (   0.6666667   0.3849002   0.3194376  )
        16        W      tau(  16) = (  -0.1666667   0.6735753   0.3194376  )
        17        W      tau(  17) = (   0.1666667   0.6735753   0.3194376  )
        18        W      tau(  18) = (   0.5000000   0.6735753   0.3194376  )
        19        Se     tau(  19) = (  -0.0000000   0.1924501   0.1600483  )
        20        Se     tau(  20) = (   0.3333333   0.1924501   0.1600483  )
        21        Se     tau(  21) = (   0.6666667   0.1924501   0.1600483  )
        22        Se     tau(  22) = (  -0.1666667   0.4811252   0.1600483  )
        23        Se     tau(  23) = (   0.1666667   0.4811252   0.1600483  )
        24        Se     tau(  24) = (   0.5000000   0.4811252   0.1600483  )
        25        Se     tau(  25) = (  -0.3333333   0.7698004   0.1600483  )
        26        Se     tau(  26) = (   0.0000000   0.7698004   0.1600483  )
        27        Se     tau(  27) = (   0.3333333   0.7698004   0.1600483  )
        28        Se     tau(  28) = (   0.1666667   0.0962250   1.1177020  )
        29        Se     tau(  29) = (   0.5000000   0.0962250   1.1177020  )
        30        Se     tau(  30) = (   0.8333333   0.0962250   1.1177020  )
        31        Se     tau(  31) = (  -0.0000000   0.3849002   1.1177020  )
        32        Se     tau(  32) = (   0.3333333   0.3849002   1.1177020  )
        33        Se     tau(  33) = (   0.6666667   0.3849002   1.1177020  )
        34        Se     tau(  34) = (  -0.1666667   0.6735753   1.1177020  )
        35        Se     tau(  35) = (   0.1666667   0.6735753   1.1177020  )
        36        Se     tau(  36) = (   0.5000000   0.6735753   1.1177020  )
        37        Se     tau(  37) = (   0.1666667   0.0962250   0.7989234  )
        38        Se     tau(  38) = (   0.5000000   0.0962250   0.7989234  )
        39        Se     tau(  39) = (   0.8333333   0.0962250   0.7989234  )
        40        Se     tau(  40) = (  -0.0000000   0.3849002   0.7989234  )
        41        Se     tau(  41) = (   0.3333333   0.3849002   0.7989234  )
        42        Se     tau(  42) = (   0.6666667   0.3849002   0.7989234  )
        43        Se     tau(  43) = (  -0.1666667   0.6735753   0.7989234  )
        44        Se     tau(  44) = (   0.1666667   0.6735753   0.7989234  )
        45        Se     tau(  45) = (   0.5000000   0.6735753   0.7989234  )
        46        Se     tau(  46) = (  -0.0000000   0.1924501   0.4788269  )
        47        Se     tau(  47) = (   0.3333333   0.1924501   0.4788269  )
        48        Se     tau(  48) = (   0.6666667   0.1924501   0.4788269  )
        49        Se     tau(  49) = (  -0.1666667   0.4811252   0.4788269  )
        50        Se     tau(  50) = (   0.1666667   0.4811252   0.4788269  )
        51        Se     tau(  51) = (   0.5000000   0.4811252   0.4788269  )
        52        Se     tau(  52) = (  -0.3333333   0.7698004   0.4788269  )
        53        Se     tau(  53) = (   0.0000000   0.7698004   0.4788269  )
        54        Se     tau(  54) = (   0.3333333   0.7698004   0.4788269  )

     -------------------------------------------------
     Parameters for Dispersion (Grimme-D2) Correction:
     -------------------------------------------------
       atom      VdW radius       C_6     

        W          3.349       2818.308
        Se         3.347        438.498

     number of k points=    12
                       cart. coord. in units 2pi/alat
        k(    1) = (   0.2500000   0.4330127   0.1956564), wk =   0.1666667
        k(    2) = (   0.2500000  -0.1443376   0.1956564), wk =   0.1666667
        k(    3) = (  -0.2500000  -0.4330127   0.1956564), wk =   0.1666667
        k(    4) = (  -0.2500000   0.4330127  -0.1956564), wk =   0.1666667
        k(    5) = (   0.2500000  -0.4330127  -0.1956564), wk =   0.1666667
        k(    6) = (   0.5000000  -0.0000000   0.1956564), wk =   0.1666667
        k(    7) = (  -0.5000000   0.0000000   0.1956564), wk =   0.1666667
        k(    8) = (  -0.2500000   0.1443376   0.1956564), wk =   0.1666667
        k(    9) = (  -0.2500000  -0.1443376  -0.1956564), wk =   0.1666667
        k(   10) = (   0.2500000   0.1443376  -0.1956564), wk =   0.1666667
        k(   11) = (   0.0000000  -0.2886751   0.1956564), wk =   0.1666667
        k(   12) = (   0.0000000   0.2886751   0.1956564), wk =   0.1666667

     Dense  grid:   787269 G-vectors     FFT dimensions: ( 120, 120, 144)

     Estimated max dynamical RAM per process >     131.42 MB

     Estimated total dynamical RAM >      32.29 GB

     Initial potential from superposition of free atoms

     starting charge     827.9882, renormalised to     828.0000
     Starting wfcs are  504 randomized atomic wfcs

     total cpu time spent up to now is       15.0 secs

     Self-consistent Calculation

     iteration #  1     ecut=    80.00 Ry     beta= 0.50
     Davidson diagonalization with overlap
     ethr =  1.00E-02,  avg # of iterations =  2.0

     Threshold (ethr) on eigenvalues was too large:
     Diagonalizing with lowered threshold

     Davidson diagonalization with overlap
     ethr =  9.26E-05,  avg # of iterations =  5.5

     total cpu time spent up to now is       98.4 secs

     total energy              =  -11463.53150450 Ry
     estimated scf accuracy    <       1.05922963 Ry

     iteration #  2     ecut=    80.00 Ry     beta= 0.50
     Davidson diagonalization with overlap
     ethr =  1.28E-04,  avg # of iterations =  2.0

     total cpu time spent up to now is      133.0 secs

     total energy              =  -11463.66130249 Ry
     estimated scf accuracy    <       0.09839012 Ry

     iteration #  3     ecut=    80.00 Ry     beta= 0.50
     Davidson diagonalization with overlap
     ethr =  1.19E-05,  avg # of iterations =  5.0

     total cpu time spent up to now is      171.5 secs

     total energy              =  -11463.66555437 Ry
     estimated scf accuracy    <       0.02693184 Ry

     iteration #  4     ecut=    80.00 Ry     beta= 0.50
     Davidson diagonalization with overlap
     ethr =  3.25E-06,  avg # of iterations =  6.0

     total cpu time spent up to now is      219.9 secs

     total energy              =  -11463.67109893 Ry
     estimated scf accuracy    <       0.04875384 Ry

     iteration #  5     ecut=    80.00 Ry     beta= 0.50
     Davidson diagonalization with overlap
     ethr =  3.25E-06,  avg # of iterations =  5.0

     total cpu time spent up to now is      255.8 secs

     total energy              =  -11463.67410224 Ry
     estimated scf accuracy    <       0.00520985 Ry

     iteration #  6     ecut=    80.00 Ry     beta= 0.50
     Davidson diagonalization with overlap
     ethr =  6.29E-07,  avg # of iterations =  6.0

     total cpu time spent up to now is      303.9 secs

     total energy              =  -11463.67592321 Ry
     estimated scf accuracy    <       0.00402976 Ry

     iteration #  7     ecut=    80.00 Ry     beta= 0.50
     Davidson diagonalization with overlap
     ethr =  4.87E-07,  avg # of iterations =  3.7

     total cpu time spent up to now is      338.2 secs

     total energy              =  -11463.67586077 Ry
     estimated scf accuracy    <       0.00345109 Ry

     iteration #  8     ecut=    80.00 Ry     beta= 0.50
     Davidson diagonalization with overlap
     ethr =  4.17E-07,  avg # of iterations =  2.0

     total cpu time spent up to now is      368.5 secs

     total energy              =  -11463.67545545 Ry
     estimated scf accuracy    <       0.00146232 Ry

     iteration #  9     ecut=    80.00 Ry     beta= 0.50
     Davidson diagonalization with overlap
     ethr =  1.77E-07,  avg # of iterations =  6.0

     total cpu time spent up to now is      412.0 secs

     total energy              =  -11463.67589783 Ry
     estimated scf accuracy    <       0.00047737 Ry

     iteration # 10     ecut=    80.00 Ry     beta= 0.50
     Davidson diagonalization with overlap
     ethr =  5.77E-08,  avg # of iterations =  2.0

     total cpu time spent up to now is      441.7 secs

     total energy              =  -11463.67581404 Ry
     estimated scf accuracy    <       0.00030713 Ry

     iteration # 11     ecut=    80.00 Ry     beta= 0.50
     Davidson diagonalization with overlap
     ethr =  3.71E-08,  avg # of iterations =  6.0

     total cpu time spent up to now is      481.8 secs

     total energy              =  -11463.67587897 Ry
     estimated scf accuracy    <       0.00004501 Ry

     iteration # 12     ecut=    80.00 Ry     beta= 0.50
     Davidson diagonalization with overlap
     ethr =  5.44E-09,  avg # of iterations =  5.6

     total cpu time spent up to now is      517.9 secs

     total energy              =  -11463.67587904 Ry
     estimated scf accuracy    <       0.00001268 Ry

     iteration # 13     ecut=    80.00 Ry     beta= 0.50
     Davidson diagonalization with overlap
     ethr =  1.53E-09,  avg # of iterations =  7.0

     total cpu time spent up to now is      565.0 secs

     total energy              =  -11463.67588288 Ry
     estimated scf accuracy    <       0.00001244 Ry

     iteration # 14     ecut=    80.00 Ry     beta= 0.50
     Davidson diagonalization with overlap
     ethr =  1.50E-09,  avg # of iterations =  2.0

     total cpu time spent up to now is      593.9 secs

     total energy              =  -11463.67588191 Ry
     estimated scf accuracy    <       0.00000641 Ry

     iteration # 15     ecut=    80.00 Ry     beta= 0.50
     Davidson diagonalization with overlap
     ethr =  7.74E-10,  avg # of iterations =  6.0

     total cpu time spent up to now is      632.2 secs

     total energy              =  -11463.67588269 Ry
     estimated scf accuracy    <       0.00000032 Ry

     iteration # 16     ecut=    80.00 Ry     beta= 0.50
     Davidson diagonalization with overlap
     ethr =  3.89E-11,  avg # of iterations =  7.0

     total cpu time spent up to now is      683.1 secs

     total energy              =  -11463.67588288 Ry
     estimated scf accuracy    <       0.00000032 Ry

     iteration # 17     ecut=    80.00 Ry     beta= 0.50
     Davidson diagonalization with overlap
     ethr =  3.87E-11,  avg # of iterations =  7.0

     total cpu time spent up to now is      715.6 secs

     total energy              =  -11463.67588283 Ry
     estimated scf accuracy    <       0.00000034 Ry

     iteration # 18     ecut=    80.00 Ry     beta= 0.50
     Davidson diagonalization with overlap
     ethr =  3.87E-11,  avg # of iterations =  2.5

     total cpu time spent up to now is      747.0 secs

     total energy              =  -11463.67588282 Ry
     estimated scf accuracy    <       0.00000012 Ry

     iteration # 19     ecut=    80.00 Ry     beta= 0.50
     Davidson diagonalization with overlap
     ethr =  1.40E-11,  avg # of iterations =  6.5

     total cpu time spent up to now is      790.3 secs

     total energy              =  -11463.67588285 Ry
     estimated scf accuracy    <       0.00000002 Ry

     iteration # 20     ecut=    80.00 Ry     beta= 0.50
     Davidson diagonalization with overlap
     ethr =  2.99E-12,  avg # of iterations =  5.4

     total cpu time spent up to now is      825.9 secs

     total energy              =  -11463.67588284 Ry
     estimated scf accuracy    <       0.00000002 Ry

     iteration # 21     ecut=    80.00 Ry     beta= 0.50
     Davidson diagonalization with overlap
     ethr =  2.11E-12,  avg # of iterations =  5.1

     total cpu time spent up to now is      861.7 secs

     total energy              =  -11463.67588285 Ry
     estimated scf accuracy    <          1.9E-09 Ry

     iteration # 22     ecut=    80.00 Ry     beta= 0.50
     Davidson diagonalization with overlap
     ethr =  2.35E-13,  avg # of iterations =  9.0

     total cpu time spent up to now is      914.7 secs

     total energy              =  -11463.67588285 Ry
     estimated scf accuracy    <          5.1E-09 Ry

     iteration # 23     ecut=    80.00 Ry     beta= 0.50
     Davidson diagonalization with overlap
     ethr =  2.35E-13,  avg # of iterations =  7.3

     total cpu time spent up to now is      953.5 secs

     total energy              =  -11463.67588285 Ry
     estimated scf accuracy    <          2.8E-09 Ry

     iteration # 24     ecut=    80.00 Ry     beta= 0.50
     Davidson diagonalization with overlap
     ethr =  2.35E-13,  avg # of iterations =  6.5

     total cpu time spent up to now is      992.5 secs

     total energy              =  -11463.67588285 Ry
     estimated scf accuracy    <          4.5E-10 Ry

     iteration # 25     ecut=    80.00 Ry     beta= 0.50
     Davidson diagonalization with overlap
     ethr =  1.00E-13,  avg # of iterations =  6.7

     total cpu time spent up to now is     1034.7 secs

     total energy              =  -11463.67588285 Ry
     estimated scf accuracy    <          3.2E-10 Ry

     iteration # 26     ecut=    80.00 Ry     beta= 0.50
     Davidson diagonalization with overlap
     ethr =  1.00E-13,  avg # of iterations =  2.0

     total cpu time spent up to now is     1063.8 secs

     total energy              =  -11463.67588285 Ry
     estimated scf accuracy    <          1.3E-10 Ry

     iteration # 27     ecut=    80.00 Ry     beta= 0.50
     Davidson diagonalization with overlap
     ethr =  1.00E-13,  avg # of iterations =  5.8

     total cpu time spent up to now is     1094.7 secs

     End of self-consistent calculation

          k = 0.2500 0.4330 0.1957 ( 98374 PWs)   bands (ev):

   -62.8115 -62.8114 -62.8105 -62.8103 -62.8103 -62.8101 -62.8082 -62.8080
   -62.8080 -62.8079 -62.8074 -62.8072 -62.8072 -62.8072 -62.8072 -62.8069
   -62.8069 -62.8067 -36.2014 -36.2013 -36.1995 -36.1994 -36.1989 -36.1989
   -36.1988 -36.1986 -36.1985 -36.1985 -36.1984 -36.1984 -36.1984 -36.1983
   -36.1983 -36.1982 -36.1982 -36.1982 -36.1982 -36.1982 -36.1982 -36.1981
   -36.1981 -36.1981 -36.1981 -36.1979 -36.1979 -36.1978 -36.1978 -36.1978
   -36.1978 -36.1977 -36.1976 -36.1976 -36.1976 -36.1975 -36.1975 -36.1975
   -36.1975 -36.1974 -36.1974 -36.1972 -36.1972 -36.1971 -36.1971 -36.1970
   -36.1969 -36.1967 -36.1966 -36.1965 -36.1965 -36.1965 -36.1964 -36.1963
   -36.1963 -36.1962 -36.1962 -36.1962 -36.1961 -36.1961 -36.1960 -36.1960
   -36.1959 -36.1958 -36.1957 -36.1957 -36.1956 -36.1954 -36.1953 -36.1951
   -36.1934 -36.1933 -36.1589 -36.1585 -36.1569 -36.1564 -36.1562 -36.1561
   -36.1560 -36.1560 -36.1560 -36.1560 -36.1558 -36.1558 -36.1557 -36.1557
   -36.1557 -36.1557 -36.1557 -36.1556 -36.1555 -36.1554 -36.1553 -36.1553
   -36.1553 -36.1553 -36.1553 -36.1552 -36.1552 -36.1551 -36.1551 -36.1551
   -36.1551 -36.1551 -36.1550 -36.1550 -36.1550 -36.1550 -36.1550 -36.1550
   -36.1549 -36.1549 -36.1548 -36.1548 -36.1547 -36.1546 -36.1546 -36.1545
   -36.1544 -36.1544 -36.1544 -36.1542 -36.1542 -36.1542 -36.1541 -36.1541
   -36.1541 -36.1541 -36.1541 -36.1541 -36.1540 -36.1540 -36.1539 -36.1539
   -36.1539 -36.1538 -36.1538 -36.1537 -36.1536 -36.1534 -36.1534 -36.1528
   -36.1513 -36.1509 -36.1407 -36.1387 -36.1385 -36.1385 -36.1384 -36.1383
   -36.1383 -36.1380 -36.1379 -36.1378 -36.1378 -36.1377 -36.1376 -36.1376
   -36.1376 -36.1375 -36.1373 -36.1367 -36.1364 -36.1359 -36.1358 -36.1356
   -36.1356 -36.1353 -36.1351 -36.1351 -36.1350 -36.1349 -36.1348 -36.1348
   -36.1348 -36.1347 -36.1347 -36.1345 -36.1344 -36.1325 -27.0839 -27.0838
   -27.0838 -27.0835 -27.0774 -27.0773 -27.0623 -27.0623 -27.0533 -27.0530
   -27.0530 -27.0529 -27.0045 -27.0044 -27.0015 -27.0013 -27.0013 -27.0010
   -26.9997 -26.9997 -26.9853 -26.9851 -26.9851 -26.9850 -26.9829 -26.9827
   -26.9827 -26.9824 -26.9707 -26.9706 -26.9588 -26.9586 -26.9586 -26.9584
   -26.9568 -26.9568 -26.9505 -26.9503 -26.9503 -26.9502 -26.9499 -26.9499
   -26.9375 -26.9373 -26.9373 -26.9371 -26.9328 -26.9326 -26.9326 -26.9326
   -26.9325 -26.9322 -26.9308 -26.9308  -2.8516  -2.7330  -2.5387  -2.5378
    -2.4257  -2.4247  -1.8103  -1.8092  -1.7511  -1.7247  -1.7236  -1.5975
    -1.5967  -1.5594  -1.4971  -1.4747  -1.4739  -1.4361  -1.4280  -1.4271
    -1.4205  -1.4197  -1.3586  -1.3186  -1.2434  -1.2425  -1.1366  -1.1357
    -1.0901  -1.0892  -1.0879  -1.0308  -1.0296  -1.0265  -1.0190  -0.9844
     5.4608   5.4613   5.5754   5.6108   5.6114   5.6773   5.8111   5.9618
     5.9631   6.0972   6.1386   6.1833   6.1901   6.1909   6.3010   6.3015
     6.5292   6.5356   6.5370   6.5654   6.6485   6.6492   6.6887   6.6894
     6.6968   6.7868   6.9393   6.9402   7.0905   7.0912   7.2134   7.2142
     7.2716   7.2722   7.2736   7.3059   7.3798   7.3803   7.4014   7.4023
     7.4240   7.4246   7.4409   7.5861   7.5938   7.5946   8.0445   8.0847
     8.1059   8.1131   8.1143   8.1267   8.1287   8.2061   8.2252   8.3122
     8.3134   8.3349   8.3496   8.3506   8.4027   8.4241   8.4250   8.4388
     8.4829   8.4847   8.5221   8.6259   8.7906   8.8616   8.8638   8.9266
     8.9275   8.9810   8.9831   9.0064   9.0073   9.0731   9.0892   9.1095
     9.2929   9.2947   9.3223   9.3241   9.3805   9.4113   9.4407   9.4655
     9.4669   9.5007   9.5012   9.6122   9.6144   9.6346   9.6350   9.6740
     9.6750   9.7486   9.8837   9.8839   9.9584   9.9589  10.0489  10.0493
    10.0754  10.4570  10.4576  10.5744  10.6447  10.6456  10.6691  10.6694
    10.6718  10.6727  10.7925  10.7932  10.8324  10.8353  10.8365  10.8508
    10.8512  10.8785  10.9067  11.0394  11.1888  11.3199

          k = 0.2500-0.1443 0.1957 ( 98372 PWs)   bands (ev):

   -62.8121 -62.8121 -62.8099 -62.8098 -62.8090 -62.8090 -62.8090 -62.8090
   -62.8079 -62.8078 -62.8078 -62.8078 -62.8075 -62.8074 -62.8067 -62.8067
   -62.8066 -62.8065 -36.2014 -36.2014 -36.1996 -36.1994 -36.1991 -36.1989
   -36.1988 -36.1986 -36.1985 -36.1985 -36.1985 -36.1984 -36.1984 -36.1984
   -36.1984 -36.1984 -36.1983 -36.1983 -36.1982 -36.1982 -36.1982 -36.1981
   -36.1981 -36.1981 -36.1981 -36.1980 -36.1979 -36.1979 -36.1979 -36.1979
   -36.1979 -36.1977 -36.1977 -36.1977 -36.1975 -36.1974 -36.1972 -36.1972
   -36.1971 -36.1971 -36.1971 -36.1970 -36.1969 -36.1969 -36.1969 -36.1969
   -36.1968 -36.1966 -36.1965 -36.1965 -36.1965 -36.1964 -36.1964 -36.1964
   -36.1963 -36.1963 -36.1963 -36.1963 -36.1963 -36.1962 -36.1961 -36.1961
   -36.1960 -36.1960 -36.1959 -36.1958 -36.1957 -36.1954 -36.1953 -36.1951
   -36.1934 -36.1933 -36.1589 -36.1585 -36.1569 -36.1565 -36.1562 -36.1562
   -36.1561 -36.1561 -36.1559 -36.1559 -36.1558 -36.1558 -36.1557 -36.1556
   -36.1556 -36.1556 -36.1556 -36.1555 -36.1555 -36.1555 -36.1553 -36.1553
   -36.1553 -36.1552 -36.1552 -36.1552 -36.1552 -36.1552 -36.1551 -36.1551
   -36.1551 -36.1551 -36.1551 -36.1550 -36.1550 -36.1550 -36.1550 -36.1550
   -36.1550 -36.1548 -36.1548 -36.1547 -36.1547 -36.1547 -36.1547 -36.1546
   -36.1546 -36.1545 -36.1544 -36.1543 -36.1543 -36.1542 -36.1541 -36.1541
   -36.1540 -36.1540 -36.1540 -36.1540 -36.1540 -36.1539 -36.1539 -36.1539
   -36.1539 -36.1538 -36.1537 -36.1537 -36.1536 -36.1535 -36.1534 -36.1528
   -36.1513 -36.1509 -36.1407 -36.1388 -36.1387 -36.1384 -36.1383 -36.1382
   -36.1381 -36.1380 -36.1380 -36.1380 -36.1378 -36.1378 -36.1377 -36.1377
   -36.1375 -36.1375 -36.1373 -36.1367 -36.1364 -36.1360 -36.1358 -36.1355
   -36.1353 -36.1353 -36.1353 -36.1351 -36.1350 -36.1350 -36.1349 -36.1349
   -36.1347 -36.1347 -36.1347 -36.1345 -36.1344 -36.1325 -27.0795 -27.0794
   -27.0667 -27.0665 -27.0664 -27.0662 -27.0647 -27.0644 -27.0644 -27.0640
   -27.0365 -27.0363 -27.0363 -27.0360 -27.0190 -27.0188 -27.0188 -27.0187
   -27.0165 -27.0164 -26.9778 -26.9776 -26.9776 -26.9774 -26.9749 -26.9749
   -26.9690 -26.9688 -26.9688 -26.9686 -26.9606 -26.9606 -26.9600 -26.9600
   -26.9527 -26.9527 -26.9476 -26.9476 -26.9450 -26.9450 -26.9429 -26.9428
   -26.9428 -26.9428 -26.9363 -26.9363 -26.9363 -26.9363 -26.9346 -26.9345
   -26.9298 -26.9298 -26.9298 -26.9298  -3.0210  -2.9004  -2.3959  -2.2864
    -2.1366  -2.1356  -2.0355  -2.0345  -1.8348  -1.7380  -1.7371  -1.6583
    -1.6573  -1.6319  -1.6134  -1.5447  -1.5282  -1.4023  -1.4013  -1.3698
    -1.2959  -1.2951  -1.2655  -1.2649  -1.2640  -1.2629  -1.2129  -1.2117
    -1.1571  -1.1162  -1.1150  -1.0782  -0.9897  -0.9883  -0.9557  -0.9542
     5.3568   5.5248   5.6794   5.8256   5.8257   5.9750   5.9767   5.9770
     6.0695   6.0696   6.0953   6.1439   6.1440   6.2567   6.2574   6.4165
     6.4171   6.5097   6.5105   6.5513   6.5518   6.5942   6.7634   6.7924
     6.7929   6.8181   6.8882   6.8887   6.9358   6.9363   7.0817   7.0822
     7.0854   7.1925   7.1961   7.2108   7.2113   7.3701   7.3705   7.5170
     7.5177   7.5233   7.5240   7.5723   7.6291   7.6296   7.7466   7.7472
     7.8014   7.8017   7.8665   7.9591   7.9595   8.1425   8.2533   8.2541
     8.3612   8.3627   8.4090   8.4092   8.4111   8.4615   8.4625   8.4662
     8.5187   8.5199   8.5557   8.5733   8.6660   8.6675   8.7855   8.9258
     8.9408   8.9780   9.0262   9.3718   9.3736   9.4454   9.4463   9.4588
     9.4610   9.4624   9.4785   9.4906   9.4918   9.5132   9.5199   9.5208
     9.5249   9.5377   9.5391   9.6454   9.6462   9.6830   9.7247   9.7487
     9.7844   9.8322   9.8340   9.8412   9.8416   9.9838  10.0134  10.1229
    10.1263  10.1279  10.2226  10.3379  10.4887  10.4925  10.5146  10.5175
    10.5301  10.5307  10.5806  10.5827  10.6097  10.6104  10.6258  10.6890
    11.0764  11.0770  11.1795  11.1805  11.3665  11.6371

          k =-0.2500-0.4330 0.1957 ( 98374 PWs)   bands (ev):

   -62.8115 -62.8114 -62.8105 -62.8103 -62.8103 -62.8101 -62.8082 -62.8080
   -62.8080 -62.8079 -62.8074 -62.8072 -62.8072 -62.8072 -62.8072 -62.8069
   -62.8069 -62.8067 -36.2014 -36.2013 -36.1995 -36.1994 -36.1989 -36.1989
   -36.1988 -36.1986 -36.1985 -36.1985 -36.1984 -36.1984 -36.1984 -36.1983
   -36.1983 -36.1982 -36.1982 -36.1982 -36.1982 -36.1982 -36.1982 -36.1981
   -36.1981 -36.1981 -36.1981 -36.1979 -36.1979 -36.1978 -36.1978 -36.1978
   -36.1978 -36.1977 -36.1976 -36.1976 -36.1976 -36.1975 -36.1975 -36.1975
   -36.1975 -36.1974 -36.1974 -36.1972 -36.1972 -36.1971 -36.1971 -36.1970
   -36.1969 -36.1967 -36.1966 -36.1965 -36.1965 -36.1965 -36.1964 -36.1963
   -36.1963 -36.1962 -36.1962 -36.1962 -36.1961 -36.1961 -36.1960 -36.1960
   -36.1959 -36.1958 -36.1957 -36.1957 -36.1956 -36.1954 -36.1953 -36.1951
   -36.1934 -36.1933 -36.1589 -36.1585 -36.1569 -36.1564 -36.1562 -36.1561
   -36.1560 -36.1560 -36.1560 -36.1559 -36.1558 -36.1558 -36.1557 -36.1557
   -36.1557 -36.1557 -36.1557 -36.1556 -36.1555 -36.1554 -36.1553 -36.1553
   -36.1553 -36.1553 -36.1553 -36.1552 -36.1552 -36.1551 -36.1551 -36.1551
   -36.1551 -36.1551 -36.1550 -36.1550 -36.1550 -36.1550 -36.1550 -36.1550
   -36.1549 -36.1549 -36.1548 -36.1548 -36.1547 -36.1546 -36.1546 -36.1545
   -36.1544 -36.1544 -36.1544 -36.1542 -36.1542 -36.1542 -36.1541 -36.1541
   -36.1541 -36.1541 -36.1541 -36.1541 -36.1540 -36.1540 -36.1539 -36.1539
   -36.1539 -36.1538 -36.1538 -36.1537 -36.1536 -36.1535 -36.1534 -36.1528
   -36.1513 -36.1509 -36.1407 -36.1387 -36.1385 -36.1385 -36.1383 -36.1383
   -36.1383 -36.1380 -36.1379 -36.1378 -36.1378 -36.1377 -36.1376 -36.1376
   -36.1376 -36.1375 -36.1373 -36.1367 -36.1364 -36.1359 -36.1358 -36.1356
   -36.1356 -36.1353 -36.1351 -36.1351 -36.1350 -36.1349 -36.1348 -36.1348
   -36.1348 -36.1347 -36.1347 -36.1345 -36.1344 -36.1325 -27.0839 -27.0838
   -27.0838 -27.0835 -27.0774 -27.0773 -27.0623 -27.0623 -27.0533 -27.0530
   -27.0530 -27.0529 -27.0045 -27.0044 -27.0015 -27.0013 -27.0013 -27.0010
   -26.9997 -26.9997 -26.9853 -26.9851 -26.9851 -26.9850 -26.9829 -26.9827
   -26.9827 -26.9824 -26.9707 -26.9706 -26.9588 -26.9586 -26.9586 -26.9584
   -26.9568 -26.9568 -26.9505 -26.9503 -26.9503 -26.9502 -26.9499 -26.9499
   -26.9375 -26.9373 -26.9373 -26.9371 -26.9328 -26.9326 -26.9326 -26.9326
   -26.9325 -26.9322 -26.9308 -26.9308  -2.8516  -2.7330  -2.5387  -2.5378
    -2.4257  -2.4247  -1.8103  -1.8092  -1.7511  -1.7247  -1.7236  -1.5975
    -1.5967  -1.5594  -1.4971  -1.4747  -1.4739  -1.4361  -1.4280  -1.4271
    -1.4205  -1.4197  -1.3586  -1.3186  -1.2434  -1.2425  -1.1366  -1.1357
    -1.0901  -1.0892  -1.0879  -1.0308  -1.0296  -1.0265  -1.0190  -0.9844
     5.4608   5.4613   5.5754   5.6108   5.6114   5.6773   5.8111   5.9618
     5.9631   6.0972   6.1386   6.1833   6.1901   6.1909   6.3010   6.3015
     6.5292   6.5356   6.5370   6.5654   6.6485   6.6492   6.6887   6.6894
     6.6968   6.7868   6.9393   6.9402   7.0906   7.0912   7.2135   7.2142
     7.2718   7.2722   7.2734   7.3059   7.3798   7.3803   7.4015   7.4022
     7.4240   7.4245   7.4409   7.5861   7.5938   7.5947   8.0445   8.0847
     8.1058   8.1133   8.1142   8.1268   8.1287   8.2061   8.2252   8.3124
     8.3133   8.3349   8.3495   8.3506   8.4027   8.4240   8.4251   8.4388
     8.4829   8.4846   8.5221   8.6259   8.7906   8.8615   8.8639   8.9266
     8.9275   8.9811   8.9831   9.0064   9.0073   9.0731   9.0892   9.1095
     9.2929   9.2947   9.3223   9.3241   9.3805   9.4114   9.4407   9.4656
     9.4667   9.5007   9.5013   9.6121   9.6145   9.6345   9.6351   9.6740
     9.6749   9.7486   9.8836   9.8840   9.9585   9.9588  10.0489  10.0493
    10.0754  10.4570  10.4576  10.5744  10.6449  10.6454  10.6689  10.6696
    10.6718  10.6726  10.7925  10.7932  10.8326  10.8356  10.8361  10.8503
    10.8516  10.8785  10.9067  11.0394  11.1888  11.3199

          k =-0.2500 0.4330-0.1957 ( 98374 PWs)   bands (ev):

   -62.8115 -62.8114 -62.8105 -62.8103 -62.8103 -62.8101 -62.8082 -62.8080
   -62.8080 -62.8079 -62.8075 -62.8072 -62.8072 -62.8072 -62.8071 -62.8069
   -62.8069 -62.8067 -36.2014 -36.2014 -36.1995 -36.1994 -36.1990 -36.1989
   -36.1987 -36.1985 -36.1985 -36.1985 -36.1985 -36.1984 -36.1983 -36.1983
   -36.1983 -36.1982 -36.1982 -36.1982 -36.1982 -36.1982 -36.1982 -36.1982
   -36.1981 -36.1981 -36.1980 -36.1979 -36.1979 -36.1979 -36.1978 -36.1978
   -36.1978 -36.1977 -36.1977 -36.1977 -36.1976 -36.1975 -36.1975 -36.1975
   -36.1974 -36.1974 -36.1973 -36.1972 -36.1971 -36.1971 -36.1971 -36.1970
   -36.1969 -36.1968 -36.1966 -36.1966 -36.1965 -36.1965 -36.1964 -36.1964
   -36.1963 -36.1963 -36.1963 -36.1961 -36.1961 -36.1961 -36.1960 -36.1960
   -36.1959 -36.1958 -36.1957 -36.1957 -36.1956 -36.1953 -36.1953 -36.1951
   -36.1934 -36.1933 -36.1589 -36.1585 -36.1569 -36.1564 -36.1562 -36.1561
   -36.1560 -36.1560 -36.1560 -36.1559 -36.1558 -36.1558 -36.1558 -36.1557
   -36.1557 -36.1557 -36.1556 -36.1556 -36.1556 -36.1554 -36.1553 -36.1553
   -36.1553 -36.1553 -36.1553 -36.1552 -36.1552 -36.1552 -36.1551 -36.1551
   -36.1551 -36.1550 -36.1550 -36.1550 -36.1550 -36.1550 -36.1550 -36.1550
   -36.1549 -36.1548 -36.1548 -36.1548 -36.1547 -36.1547 -36.1546 -36.1545
   -36.1544 -36.1544 -36.1544 -36.1543 -36.1542 -36.1542 -36.1541 -36.1541
   -36.1541 -36.1541 -36.1541 -36.1540 -36.1540 -36.1539 -36.1539 -36.1539
   -36.1538 -36.1538 -36.1537 -36.1536 -36.1536 -36.1535 -36.1534 -36.1528
   -36.1513 -36.1509 -36.1407 -36.1388 -36.1385 -36.1384 -36.1383 -36.1383
   -36.1383 -36.1380 -36.1380 -36.1378 -36.1378 -36.1377 -36.1376 -36.1376
   -36.1376 -36.1375 -36.1373 -36.1367 -36.1364 -36.1359 -36.1358 -36.1356
   -36.1356 -36.1353 -36.1351 -36.1351 -36.1350 -36.1349 -36.1349 -36.1348
   -36.1348 -36.1347 -36.1347 -36.1345 -36.1344 -36.1325 -27.0840 -27.0838
   -27.0838 -27.0836 -27.0773 -27.0773 -27.0624 -27.0623 -27.0532 -27.0530
   -27.0530 -27.0528 -27.0044 -27.0044 -27.0015 -27.0013 -27.0013 -27.0010
   -26.9998 -26.9997 -26.9854 -26.9851 -26.9851 -26.9850 -26.9828 -26.9827
   -26.9827 -26.9824 -26.9707 -26.9707 -26.9588 -26.9586 -26.9586 -26.9584
   -26.9568 -26.9568 -26.9505 -26.9503 -26.9503 -26.9502 -26.9499 -26.9498
   -26.9375 -26.9373 -26.9373 -26.9371 -26.9329 -26.9326 -26.9326 -26.9325
   -26.9325 -26.9323 -26.9308 -26.9308  -2.8516  -2.7330  -2.5387  -2.5378
    -2.4257  -2.4247  -1.8104  -1.8093  -1.7512  -1.7249  -1.7238  -1.5975
    -1.5967  -1.5594  -1.4969  -1.4745  -1.4736  -1.4359  -1.4280  -1.4271
    -1.4203  -1.4195  -1.3589  -1.3189  -1.2432  -1.2423  -1.1364  -1.1355
    -1.0905  -1.0891  -1.0883  -1.0310  -1.0298  -1.0262  -1.0193  -0.9841
     5.4605   5.4611   5.5755   5.6105   5.6111   5.6778   5.8116   5.9618
     5.9631   6.0971   6.1384   6.1833   6.1902   6.1910   6.3012   6.3017
     6.5287   6.5356   6.5370   6.5649   6.6488   6.6495   6.6890   6.6897
     6.6975   6.7874   6.9391   6.9400   7.0904   7.0911   7.2138   7.2146
     7.2708   7.2724   7.2729   7.3060   7.3797   7.3802   7.4010   7.4018
     7.4239   7.4245   7.4407   7.5856   7.5942   7.5950   8.0439   8.0851
     8.1062   8.1130   8.1143   8.1267   8.1286   8.2055   8.2253   8.3124
     8.3135   8.3344   8.3500   8.3509   8.4026   8.4240   8.4249   8.4394
     8.4824   8.4841   8.5211   8.6258   8.7904   8.8619   8.8641   8.9266
     8.9275   8.9815   8.9836   9.0065   9.0074   9.0726   9.0888   9.1078
     9.2929   9.2947   9.3223   9.3241   9.3823   9.4120   9.4425   9.4653
     9.4667   9.5007   9.5012   9.6123   9.6153   9.6347   9.6352   9.6738
     9.6749   9.7488   9.8835   9.8837   9.9587   9.9591  10.0490  10.0494
    10.0748  10.4567  10.4574  10.5745  10.6451  10.6458  10.6691  10.6700
    10.6715  10.6722  10.7920  10.7929  10.8322  10.8354  10.8367  10.8510
    10.8512  10.8782  10.9070  11.0398  11.1886  11.3193

          k = 0.2500-0.4330-0.1957 ( 98374 PWs)   bands (ev):

   -62.8115 -62.8114 -62.8105 -62.8103 -62.8103 -62.8101 -62.8082 -62.8080
   -62.8080 -62.8079 -62.8075 -62.8072 -62.8072 -62.8072 -62.8071 -62.8069
   -62.8069 -62.8067 -36.2014 -36.2014 -36.1995 -36.1994 -36.1990 -36.1989
   -36.1987 -36.1985 -36.1985 -36.1985 -36.1985 -36.1984 -36.1983 -36.1983
   -36.1983 -36.1982 -36.1982 -36.1982 -36.1982 -36.1982 -36.1982 -36.1982
   -36.1981 -36.1981 -36.1980 -36.1979 -36.1979 -36.1979 -36.1978 -36.1978
   -36.1978 -36.1977 -36.1977 -36.1977 -36.1976 -36.1975 -36.1975 -36.1975
   -36.1974 -36.1974 -36.1973 -36.1972 -36.1971 -36.1971 -36.1971 -36.1970
   -36.1969 -36.1968 -36.1966 -36.1966 -36.1965 -36.1965 -36.1964 -36.1964
   -36.1963 -36.1963 -36.1963 -36.1961 -36.1961 -36.1961 -36.1960 -36.1960
   -36.1959 -36.1958 -36.1957 -36.1957 -36.1956 -36.1953 -36.1953 -36.1951
   -36.1934 -36.1933 -36.1589 -36.1585 -36.1569 -36.1564 -36.1562 -36.1561
   -36.1560 -36.1560 -36.1560 -36.1559 -36.1558 -36.1558 -36.1557 -36.1557
   -36.1557 -36.1557 -36.1556 -36.1556 -36.1556 -36.1554 -36.1553 -36.1553
   -36.1553 -36.1553 -36.1553 -36.1552 -36.1552 -36.1552 -36.1551 -36.1551
   -36.1551 -36.1550 -36.1550 -36.1550 -36.1550 -36.1550 -36.1550 -36.1550
   -36.1549 -36.1548 -36.1548 -36.1548 -36.1547 -36.1547 -36.1546 -36.1545
   -36.1544 -36.1544 -36.1544 -36.1543 -36.1542 -36.1542 -36.1541 -36.1541
   -36.1541 -36.1541 -36.1541 -36.1541 -36.1540 -36.1539 -36.1539 -36.1539
   -36.1538 -36.1538 -36.1537 -36.1536 -36.1536 -36.1535 -36.1534 -36.1528
   -36.1513 -36.1509 -36.1407 -36.1388 -36.1385 -36.1384 -36.1383 -36.1383
   -36.1383 -36.1380 -36.1380 -36.1378 -36.1378 -36.1377 -36.1376 -36.1376
   -36.1376 -36.1375 -36.1373 -36.1367 -36.1364 -36.1359 -36.1358 -36.1356
   -36.1356 -36.1353 -36.1351 -36.1351 -36.1350 -36.1349 -36.1349 -36.1348
   -36.1348 -36.1347 -36.1347 -36.1345 -36.1344 -36.1325 -27.0840 -27.0838
   -27.0838 -27.0836 -27.0773 -27.0773 -27.0624 -27.0623 -27.0532 -27.0530
   -27.0530 -27.0528 -27.0044 -27.0044 -27.0015 -27.0013 -27.0013 -27.0010
   -26.9998 -26.9997 -26.9854 -26.9851 -26.9851 -26.9850 -26.9828 -26.9827
   -26.9827 -26.9824 -26.9707 -26.9707 -26.9588 -26.9586 -26.9586 -26.9584
   -26.9568 -26.9568 -26.9505 -26.9503 -26.9503 -26.9502 -26.9499 -26.9498
   -26.9375 -26.9373 -26.9373 -26.9371 -26.9329 -26.9326 -26.9326 -26.9325
   -26.9325 -26.9323 -26.9308 -26.9308  -2.8516  -2.7330  -2.5387  -2.5378
    -2.4257  -2.4247  -1.8104  -1.8093  -1.7512  -1.7249  -1.7238  -1.5975
    -1.5967  -1.5594  -1.4969  -1.4745  -1.4736  -1.4359  -1.4280  -1.4271
    -1.4203  -1.4195  -1.3589  -1.3189  -1.2432  -1.2423  -1.1364  -1.1355
    -1.0905  -1.0891  -1.0883  -1.0310  -1.0298  -1.0262  -1.0193  -0.9841
     5.4606   5.4611   5.5755   5.6105   5.6112   5.6778   5.8116   5.9618
     5.9631   6.0971   6.1384   6.1833   6.1902   6.1910   6.3012   6.3017
     6.5287   6.5356   6.5370   6.5649   6.6488   6.6495   6.6890   6.6898
     6.6975   6.7874   6.9390   6.9400   7.0904   7.0910   7.2138   7.2145
     7.2712   7.2720   7.2729   7.3060   7.3797   7.3802   7.4010   7.4018
     7.4239   7.4245   7.4407   7.5856   7.5941   7.5950   8.0439   8.0851
     8.1062   8.1132   8.1141   8.1267   8.1286   8.2054   8.2253   8.3125
     8.3134   8.3344   8.3499   8.3510   8.4025   8.4239   8.4250   8.4394
     8.4823   8.4841   8.5212   8.6258   8.7904   8.8618   8.8642   8.9266
     8.9276   8.9816   8.9835   9.0065   9.0074   9.0726   9.0888   9.1078
     9.2929   9.2947   9.3223   9.3241   9.3823   9.4120   9.4425   9.4655
     9.4666   9.5006   9.5013   9.6123   9.6153   9.6346   9.6353   9.6739
     9.6748   9.7488   9.8834   9.8838   9.9588   9.9590  10.0490  10.0494
    10.0748  10.4568  10.4573  10.5745  10.6452  10.6457  10.6692  10.6699
    10.6716  10.6722  10.7920  10.7928  10.8323  10.8359  10.8362  10.8505
    10.8517  10.8782  10.9070  11.0398  11.1885  11.3193

          k = 0.5000-0.0000 0.1957 ( 98374 PWs)   bands (ev):

   -62.8115 -62.8114 -62.8103 -62.8103 -62.8103 -62.8103 -62.8081 -62.8080
   -62.8080 -62.8080 -62.8073 -62.8072 -62.8072 -62.8072 -62.8071 -62.8070
   -62.8069 -62.8066 -36.2014 -36.2013 -36.1995 -36.1994 -36.1990 -36.1989
   -36.1988 -36.1985 -36.1985 -36.1985 -36.1985 -36.1984 -36.1983 -36.1983
   -36.1983 -36.1983 -36.1982 -36.1982 -36.1982 -36.1982 -36.1982 -36.1982
   -36.1981 -36.1981 -36.1981 -36.1979 -36.1979 -36.1979 -36.1978 -36.1978
   -36.1978 -36.1977 -36.1976 -36.1976 -36.1976 -36.1975 -36.1975 -36.1975
   -36.1974 -36.1974 -36.1973 -36.1972 -36.1971 -36.1971 -36.1971 -36.1970
   -36.1969 -36.1967 -36.1966 -36.1966 -36.1966 -36.1965 -36.1964 -36.1963
   -36.1963 -36.1963 -36.1962 -36.1962 -36.1961 -36.1961 -36.1960 -36.1960
   -36.1959 -36.1958 -36.1957 -36.1957 -36.1956 -36.1954 -36.1953 -36.1951
   -36.1934 -36.1933 -36.1589 -36.1585 -36.1569 -36.1564 -36.1562 -36.1561
   -36.1560 -36.1560 -36.1560 -36.1560 -36.1558 -36.1558 -36.1557 -36.1557
   -36.1557 -36.1557 -36.1557 -36.1556 -36.1556 -36.1554 -36.1553 -36.1553
   -36.1553 -36.1553 -36.1552 -36.1552 -36.1552 -36.1552 -36.1551 -36.1551
   -36.1551 -36.1550 -36.1550 -36.1550 -36.1550 -36.1550 -36.1550 -36.1550
   -36.1549 -36.1549 -36.1548 -36.1548 -36.1547 -36.1547 -36.1546 -36.1545
   -36.1544 -36.1544 -36.1544 -36.1542 -36.1542 -36.1542 -36.1541 -36.1541
   -36.1541 -36.1541 -36.1541 -36.1541 -36.1540 -36.1539 -36.1539 -36.1539
   -36.1538 -36.1538 -36.1537 -36.1537 -36.1536 -36.1535 -36.1534 -36.1528
   -36.1513 -36.1509 -36.1407 -36.1387 -36.1385 -36.1385 -36.1383 -36.1383
   -36.1383 -36.1381 -36.1379 -36.1378 -36.1378 -36.1377 -36.1376 -36.1376
   -36.1376 -36.1375 -36.1373 -36.1367 -36.1364 -36.1359 -36.1358 -36.1356
   -36.1356 -36.1353 -36.1352 -36.1350 -36.1350 -36.1348 -36.1348 -36.1348
   -36.1348 -36.1347 -36.1347 -36.1345 -36.1344 -36.1325 -27.0838 -27.0838
   -27.0838 -27.0837 -27.0773 -27.0773 -27.0623 -27.0623 -27.0531 -27.0530
   -27.0530 -27.0530 -27.0045 -27.0044 -27.0013 -27.0013 -27.0013 -27.0012
   -26.9998 -26.9997 -26.9852 -26.9851 -26.9851 -26.9851 -26.9827 -26.9827
   -26.9827 -26.9826 -26.9707 -26.9707 -26.9587 -26.9586 -26.9586 -26.9586
   -26.9568 -26.9568 -26.9504 -26.9503 -26.9503 -26.9503 -26.9499 -26.9498
   -26.9373 -26.9373 -26.9373 -26.9373 -26.9326 -26.9326 -26.9326 -26.9325
   -26.9325 -26.9325 -26.9308 -26.9308  -2.8516  -2.7330  -2.5383  -2.5382
    -2.4253  -2.4251  -1.8099  -1.8097  -1.7511  -1.7243  -1.7242  -1.5972
    -1.5970  -1.5594  -1.4970  -1.4743  -1.4740  -1.4360  -1.4276  -1.4275
    -1.4202  -1.4198  -1.3588  -1.3188  -1.2430  -1.2428  -1.1362  -1.1360
    -1.0898  -1.0891  -1.0887  -1.0305  -1.0301  -1.0263  -1.0192  -0.9842
     5.4607   5.4612   5.5754   5.6107   5.6112   5.6776   5.8114   5.9624
     5.9626   6.0971   6.1385   6.1833   6.1905   6.1906   6.3013   6.3014
     6.5289   6.5363   6.5363   6.5651   6.6488   6.6491   6.6890   6.6894
     6.6971   6.7871   6.9396   6.9397   7.0905   7.0911   7.2136   7.2144
     7.2711   7.2724   7.2733   7.3060   7.3799   7.3801   7.4013   7.4020
     7.4240   7.4245   7.4408   7.5858   7.5941   7.5947   8.0442   8.0850
     8.1060   8.1130   8.1143   8.1271   8.1283   8.2058   8.2252   8.3122
     8.3135   8.3347   8.3499   8.3506   8.4026   8.4242   8.4248   8.4391
     8.4832   8.4839   8.5216   8.6258   8.7905   8.8623   8.8634   8.9270
     8.9271   8.9816   8.9830   9.0066   9.0072   9.0728   9.0890   9.1086
     9.2936   9.2941   9.3231   9.3233   9.3814   9.4117   9.4416   9.4655
     9.4668   9.5008   9.5010   9.6123   9.6148   9.6347   9.6350   9.6740
     9.6749   9.7487   9.8835   9.8839   9.9584   9.9591  10.0491  10.0492
    10.0751  10.4569  10.4574  10.5744  10.6448  10.6458  10.6693  10.6696
    10.6718  10.6722  10.7924  10.7930  10.8321  10.8352  10.8368  10.8509
    10.8512  10.8783  10.9069  11.0396  11.1887  11.3196

          k =-0.5000 0.0000 0.1957 ( 98374 PWs)   bands (ev):

   -62.8115 -62.8114 -62.8103 -62.8103 -62.8103 -62.8103 -62.8081 -62.8080
   -62.8080 -62.8080 -62.8073 -62.8072 -62.8072 -62.8072 -62.8071 -62.8070
   -62.8069 -62.8066 -36.2014 -36.2013 -36.1995 -36.1994 -36.1990 -36.1989
   -36.1988 -36.1985 -36.1985 -36.1985 -36.1985 -36.1984 -36.1983 -36.1983
   -36.1983 -36.1982 -36.1982 -36.1982 -36.1982 -36.1982 -36.1982 -36.1982
   -36.1981 -36.1981 -36.1981 -36.1979 -36.1979 -36.1979 -36.1978 -36.1978
   -36.1978 -36.1977 -36.1976 -36.1976 -36.1976 -36.1975 -36.1975 -36.1975
   -36.1974 -36.1974 -36.1973 -36.1972 -36.1971 -36.1971 -36.1971 -36.1970
   -36.1969 -36.1967 -36.1966 -36.1966 -36.1966 -36.1965 -36.1964 -36.1963
   -36.1963 -36.1963 -36.1962 -36.1962 -36.1961 -36.1961 -36.1960 -36.1960
   -36.1959 -36.1958 -36.1957 -36.1957 -36.1956 -36.1954 -36.1953 -36.1951
   -36.1934 -36.1933 -36.1589 -36.1585 -36.1569 -36.1564 -36.1562 -36.1561
   -36.1560 -36.1560 -36.1560 -36.1559 -36.1558 -36.1558 -36.1557 -36.1557
   -36.1557 -36.1557 -36.1557 -36.1556 -36.1556 -36.1554 -36.1553 -36.1553
   -36.1553 -36.1553 -36.1553 -36.1552 -36.1552 -36.1551 -36.1551 -36.1551
   -36.1551 -36.1550 -36.1550 -36.1550 -36.1550 -36.1550 -36.1550 -36.1550
   -36.1549 -36.1549 -36.1548 -36.1548 -36.1547 -36.1547 -36.1546 -36.1545
   -36.1544 -36.1544 -36.1544 -36.1542 -36.1542 -36.1542 -36.1541 -36.1541
   -36.1541 -36.1541 -36.1541 -36.1540 -36.1540 -36.1539 -36.1539 -36.1539
   -36.1538 -36.1538 -36.1537 -36.1537 -36.1536 -36.1535 -36.1534 -36.1528
   -36.1513 -36.1509 -36.1407 -36.1387 -36.1385 -36.1385 -36.1383 -36.1383
   -36.1383 -36.1381 -36.1379 -36.1378 -36.1378 -36.1377 -36.1376 -36.1376
   -36.1376 -36.1375 -36.1373 -36.1367 -36.1364 -36.1359 -36.1358 -36.1356
   -36.1356 -36.1353 -36.1352 -36.1350 -36.1350 -36.1348 -36.1348 -36.1348
   -36.1348 -36.1347 -36.1347 -36.1345 -36.1344 -36.1325 -27.0838 -27.0838
   -27.0838 -27.0837 -27.0773 -27.0773 -27.0623 -27.0623 -27.0531 -27.0530
   -27.0530 -27.0530 -27.0045 -27.0044 -27.0013 -27.0013 -27.0013 -27.0012
   -26.9998 -26.9997 -26.9852 -26.9851 -26.9851 -26.9851 -26.9827 -26.9827
   -26.9827 -26.9826 -26.9707 -26.9707 -26.9587 -26.9586 -26.9586 -26.9586
   -26.9568 -26.9568 -26.9504 -26.9503 -26.9503 -26.9503 -26.9499 -26.9498
   -26.9373 -26.9373 -26.9373 -26.9373 -26.9326 -26.9326 -26.9326 -26.9325
   -26.9325 -26.9325 -26.9308 -26.9308  -2.8516  -2.7330  -2.5383  -2.5382
    -2.4253  -2.4251  -1.8099  -1.8097  -1.7511  -1.7243  -1.7242  -1.5972
    -1.5970  -1.5594  -1.4970  -1.4744  -1.4740  -1.4360  -1.4276  -1.4275
    -1.4202  -1.4198  -1.3588  -1.3188  -1.2430  -1.2428  -1.1362  -1.1360
    -1.0898  -1.0891  -1.0887  -1.0305  -1.0301  -1.0262  -1.0192  -0.9842
     5.4607   5.4611   5.5754   5.6107   5.6113   5.6776   5.8114   5.9624
     5.9625   6.0971   6.1385   6.1833   6.1905   6.1906   6.3012   6.3014
     6.5289   6.5362   6.5364   6.5651   6.6488   6.6491   6.6890   6.6894
     6.6971   6.7871   6.9394   6.9398   7.0907   7.0910   7.2137   7.2143
     7.2717   7.2721   7.2729   7.3060   7.3798   7.3801   7.4016   7.4016
     7.4242   7.4243   7.4408   7.5859   7.5940   7.5948   8.0442   8.0849
     8.1060   8.1135   8.1139   8.1272   8.1282   8.2058   8.2252   8.3124
     8.3133   8.3347   8.3497   8.3508   8.4026   8.4240   8.4251   8.4391
     8.4831   8.4839   8.5217   8.6258   8.7905   8.8620   8.8637   8.9269
     8.9272   8.9820   8.9826   9.0068   9.0070   9.0728   9.0890   9.1086
     9.2938   9.2939   9.3229   9.3234   9.3814   9.4117   9.4415   9.4659
     9.4663   9.5006   9.5013   9.6122   9.6149   9.6345   9.6353   9.6743
     9.6746   9.7487   9.8834   9.8840   9.9585   9.9590  10.0490  10.0493
    10.0751  10.4571  10.4573  10.5745  10.6452  10.6455  10.6691  10.6699
    10.6716  10.6722  10.7925  10.7929  10.8323  10.8358  10.8360  10.8502
    10.8519  10.8784  10.9069  11.0396  11.1887  11.3196

          k =-0.2500 0.1443 0.1957 ( 98372 PWs)   bands (ev):

   -62.8121 -62.8121 -62.8099 -62.8098 -62.8090 -62.8090 -62.8090 -62.8090
   -62.8079 -62.8078 -62.8078 -62.8078 -62.8075 -62.8074 -62.8067 -62.8067
   -62.8066 -62.8065 -36.2014 -36.2014 -36.1996 -36.1994 -36.1991 -36.1989
   -36.1988 -36.1986 -36.1985 -36.1985 -36.1984 -36.1984 -36.1984 -36.1984
   -36.1984 -36.1984 -36.1983 -36.1983 -36.1982 -36.1982 -36.1982 -36.1981
   -36.1981 -36.1981 -36.1981 -36.1980 -36.1979 -36.1979 -36.1979 -36.1979
   -36.1979 -36.1977 -36.1977 -36.1977 -36.1975 -36.1974 -36.1972 -36.1972
   -36.1971 -36.1971 -36.1971 -36.1970 -36.1969 -36.1969 -36.1969 -36.1969
   -36.1968 -36.1966 -36.1965 -36.1965 -36.1965 -36.1964 -36.1964 -36.1964
   -36.1963 -36.1963 -36.1963 -36.1963 -36.1963 -36.1962 -36.1961 -36.1961
   -36.1960 -36.1960 -36.1959 -36.1958 -36.1957 -36.1954 -36.1953 -36.1951
   -36.1934 -36.1933 -36.1589 -36.1585 -36.1569 -36.1565 -36.1562 -36.1562
   -36.1561 -36.1561 -36.1559 -36.1559 -36.1558 -36.1558 -36.1557 -36.1556
   -36.1556 -36.1556 -36.1556 -36.1555 -36.1555 -36.1555 -36.1553 -36.1553
   -36.1553 -36.1552 -36.1552 -36.1552 -36.1552 -36.1552 -36.1551 -36.1551
   -36.1551 -36.1551 -36.1551 -36.1550 -36.1550 -36.1550 -36.1550 -36.1550
   -36.1550 -36.1548 -36.1548 -36.1547 -36.1547 -36.1547 -36.1547 -36.1546
   -36.1545 -36.1545 -36.1544 -36.1543 -36.1543 -36.1542 -36.1541 -36.1541
   -36.1540 -36.1540 -36.1540 -36.1540 -36.1540 -36.1539 -36.1539 -36.1539
   -36.1538 -36.1538 -36.1537 -36.1537 -36.1536 -36.1535 -36.1534 -36.1528
   -36.1513 -36.1509 -36.1407 -36.1388 -36.1387 -36.1384 -36.1383 -36.1382
   -36.1381 -36.1380 -36.1380 -36.1380 -36.1378 -36.1378 -36.1377 -36.1377
   -36.1375 -36.1375 -36.1373 -36.1367 -36.1364 -36.1360 -36.1358 -36.1355
   -36.1353 -36.1353 -36.1352 -36.1351 -36.1350 -36.1350 -36.1349 -36.1349
   -36.1347 -36.1347 -36.1347 -36.1345 -36.1344 -36.1325 -27.0795 -27.0794
   -27.0667 -27.0665 -27.0664 -27.0662 -27.0647 -27.0644 -27.0644 -27.0640
   -27.0365 -27.0363 -27.0363 -27.0360 -27.0190 -27.0188 -27.0188 -27.0187
   -27.0165 -27.0164 -26.9778 -26.9776 -26.9776 -26.9774 -26.9749 -26.9749
   -26.9690 -26.9688 -26.9688 -26.9686 -26.9606 -26.9606 -26.9600 -26.9600
   -26.9527 -26.9527 -26.9476 -26.9476 -26.9450 -26.9450 -26.9429 -26.9428
   -26.9428 -26.9428 -26.9363 -26.9363 -26.9363 -26.9363 -26.9346 -26.9345
   -26.9298 -26.9298 -26.9298 -26.9298  -3.0210  -2.9004  -2.3960  -2.2864
    -2.1366  -2.1356  -2.0355  -2.0345  -1.8348  -1.7380  -1.7371  -1.6583
    -1.6573  -1.6319  -1.6134  -1.5447  -1.5282  -1.4023  -1.4013  -1.3698
    -1.2959  -1.2951  -1.2656  -1.2649  -1.2640  -1.2629  -1.2129  -1.2117
    -1.1571  -1.1162  -1.1150  -1.0782  -0.9897  -0.9883  -0.9557  -0.9542
     5.3568   5.5249   5.6793   5.8255   5.8256   5.9750   5.9768   5.9771
     6.0695   6.0697   6.0952   6.1438   6.1439   6.2569   6.2577   6.4164
     6.4172   6.5098   6.5104   6.5508   6.5515   6.5946   6.7635   6.7920
     6.7926   6.8181   6.8884   6.8891   6.9356   6.9360   7.0824   7.0830
     7.0856   7.1925   7.1954   7.2108   7.2114   7.3698   7.3704   7.5167
     7.5176   7.5237   7.5244   7.5724   7.6287   7.6298   7.7467   7.7471
     7.8015   7.8017   7.8667   7.9586   7.9591   8.1425   8.2539   8.2543
     8.3618   8.3628   8.4088   8.4091   8.4110   8.4612   8.4624   8.4662
     8.5184   8.5195   8.5557   8.5733   8.6662   8.6677   8.7855   8.9259
     8.9408   8.9780   9.0262   9.3718   9.3737   9.4451   9.4463   9.4586
     9.4612   9.4623   9.4785   9.4910   9.4919   9.5132   9.5196   9.5210
     9.5249   9.5376   9.5391   9.6453   9.6463   9.6831   9.7249   9.7488
     9.7845   9.8327   9.8334   9.8406   9.8414   9.9838  10.0134  10.1229
    10.1273  10.1280  10.2222  10.3378  10.4887  10.4926  10.5149  10.5166
    10.5303  10.5309  10.5805  10.5831  10.6095  10.6102  10.6264  10.6885
    11.0761  11.0771  11.1797  11.1805  11.3665  11.6371

          k =-0.2500-0.1443-0.1957 ( 98372 PWs)   bands (ev):

   -62.8121 -62.8121 -62.8098 -62.8098 -62.8091 -62.8090 -62.8090 -62.8090
   -62.8079 -62.8078 -62.8078 -62.8078 -62.8075 -62.8075 -62.8067 -62.8067
   -62.8066 -62.8065 -36.2015 -36.2014 -36.1995 -36.1994 -36.1990 -36.1989
   -36.1989 -36.1986 -36.1986 -36.1985 -36.1985 -36.1984 -36.1984 -36.1984
   -36.1984 -36.1984 -36.1983 -36.1983 -36.1982 -36.1982 -36.1982 -36.1981
   -36.1981 -36.1981 -36.1981 -36.1980 -36.1979 -36.1979 -36.1979 -36.1979
   -36.1978 -36.1977 -36.1977 -36.1976 -36.1975 -36.1975 -36.1973 -36.1972
   -36.1971 -36.1971 -36.1971 -36.1970 -36.1970 -36.1969 -36.1969 -36.1968
   -36.1968 -36.1966 -36.1966 -36.1965 -36.1965 -36.1965 -36.1964 -36.1964
   -36.1963 -36.1963 -36.1963 -36.1963 -36.1962 -36.1962 -36.1961 -36.1960
   -36.1960 -36.1960 -36.1958 -36.1958 -36.1957 -36.1955 -36.1953 -36.1951
   -36.1934 -36.1933 -36.1589 -36.1585 -36.1569 -36.1565 -36.1562 -36.1562
   -36.1561 -36.1561 -36.1560 -36.1559 -36.1558 -36.1557 -36.1557 -36.1556
   -36.1556 -36.1556 -36.1556 -36.1555 -36.1555 -36.1555 -36.1553 -36.1553
   -36.1553 -36.1552 -36.1552 -36.1552 -36.1552 -36.1552 -36.1551 -36.1551
   -36.1551 -36.1551 -36.1551 -36.1550 -36.1550 -36.1550 -36.1550 -36.1550
   -36.1550 -36.1548 -36.1548 -36.1547 -36.1547 -36.1547 -36.1547 -36.1546
   -36.1545 -36.1545 -36.1544 -36.1543 -36.1543 -36.1542 -36.1541 -36.1541
   -36.1540 -36.1540 -36.1540 -36.1540 -36.1540 -36.1539 -36.1539 -36.1539
   -36.1539 -36.1538 -36.1537 -36.1537 -36.1536 -36.1534 -36.1533 -36.1528
   -36.1513 -36.1509 -36.1407 -36.1388 -36.1387 -36.1385 -36.1383 -36.1382
   -36.1381 -36.1380 -36.1380 -36.1379 -36.1378 -36.1378 -36.1377 -36.1377
   -36.1375 -36.1375 -36.1373 -36.1367 -36.1364 -36.1360 -36.1358 -36.1355
   -36.1353 -36.1353 -36.1353 -36.1351 -36.1350 -36.1350 -36.1349 -36.1348
   -36.1347 -36.1347 -36.1347 -36.1346 -36.1344 -36.1325 -27.0794 -27.0794
   -27.0667 -27.0665 -27.0665 -27.0662 -27.0647 -27.0644 -27.0644 -27.0640
   -27.0366 -27.0363 -27.0363 -27.0361 -27.0190 -27.0188 -27.0188 -27.0187
   -27.0164 -27.0164 -26.9778 -26.9776 -26.9776 -26.9774 -26.9750 -26.9749
   -26.9689 -26.9688 -26.9688 -26.9686 -26.9606 -26.9606 -26.9600 -26.9600
   -26.9527 -26.9526 -26.9476 -26.9476 -26.9451 -26.9450 -26.9428 -26.9428
   -26.9428 -26.9428 -26.9363 -26.9363 -26.9363 -26.9363 -26.9346 -26.9346
   -26.9298 -26.9298 -26.9298 -26.9298  -3.0210  -2.9004  -2.3961  -2.2866
    -2.1365  -2.1355  -2.0354  -2.0344  -1.8348  -1.7379  -1.7370  -1.6581
    -1.6573  -1.6319  -1.6137  -1.5451  -1.5281  -1.4025  -1.4015  -1.3696
    -1.2959  -1.2951  -1.2659  -1.2647  -1.2638  -1.2633  -1.2129  -1.2118
    -1.1567  -1.1163  -1.1151  -1.0778  -0.9897  -0.9883  -0.9557  -0.9542
     5.3568   5.5252   5.6798   5.8253   5.8255   5.9750   5.9766   5.9769
     6.0694   6.0696   6.0950   6.1437   6.1438   6.2571   6.2578   6.4165
     6.4171   6.5097   6.5104   6.5510   6.5514   6.5944   6.7632   6.7922
     6.7926   6.8177   6.8885   6.8890   6.9354   6.9359   7.0825   7.0831
     7.0856   7.1919   7.1954   7.2108   7.2114   7.3701   7.3705   7.5171
     7.5178   7.5240   7.5248   7.5717   7.6291   7.6295   7.7470   7.7476
     7.8014   7.8016   7.8674   7.9586   7.9589   8.1431   8.2539   8.2546
     8.3625   8.3639   8.4089   8.4091   8.4101   8.4622   8.4630   8.4652
     8.5184   8.5196   8.5552   8.5728   8.6661   8.6676   8.7860   8.9264
     8.9413   8.9766   9.0248   9.3717   9.3735   9.4453   9.4461   9.4593
     9.4609   9.4622   9.4787   9.4911   9.4921   9.5150   9.5195   9.5201
     9.5250   9.5374   9.5388   9.6448   9.6455   9.6841   9.7248   9.7466
     9.7822   9.8316   9.8332   9.8412   9.8416   9.9854  10.0132  10.1226
    10.1272  10.1287  10.2223  10.3389  10.4897  10.4928  10.5134  10.5162
    10.5305  10.5312  10.5799  10.5818  10.6096  10.6102  10.6273  10.6895
    11.0763  11.0769  11.1795  11.1805  11.3667  11.6373

          k = 0.2500 0.1443-0.1957 ( 98372 PWs)   bands (ev):

   -62.8121 -62.8121 -62.8098 -62.8098 -62.8091 -62.8090 -62.8090 -62.8090
   -62.8079 -62.8078 -62.8078 -62.8078 -62.8075 -62.8075 -62.8067 -62.8067
   -62.8066 -62.8065 -36.2015 -36.2014 -36.1995 -36.1994 -36.1990 -36.1989
   -36.1989 -36.1986 -36.1986 -36.1985 -36.1985 -36.1984 -36.1984 -36.1984
   -36.1984 -36.1984 -36.1983 -36.1983 -36.1982 -36.1982 -36.1982 -36.1981
   -36.1981 -36.1981 -36.1981 -36.1980 -36.1979 -36.1979 -36.1979 -36.1979
   -36.1978 -36.1977 -36.1977 -36.1976 -36.1975 -36.1975 -36.1973 -36.1972
   -36.1971 -36.1971 -36.1971 -36.1970 -36.1970 -36.1969 -36.1969 -36.1968
   -36.1968 -36.1966 -36.1966 -36.1965 -36.1965 -36.1965 -36.1964 -36.1964
   -36.1963 -36.1963 -36.1963 -36.1963 -36.1962 -36.1962 -36.1961 -36.1960
   -36.1960 -36.1960 -36.1958 -36.1958 -36.1957 -36.1955 -36.1953 -36.1951
   -36.1934 -36.1933 -36.1589 -36.1585 -36.1569 -36.1565 -36.1562 -36.1562
   -36.1561 -36.1561 -36.1560 -36.1559 -36.1558 -36.1557 -36.1557 -36.1556
   -36.1556 -36.1556 -36.1556 -36.1555 -36.1555 -36.1555 -36.1553 -36.1553
   -36.1553 -36.1552 -36.1552 -36.1552 -36.1552 -36.1552 -36.1551 -36.1551
   -36.1551 -36.1551 -36.1551 -36.1550 -36.1550 -36.1550 -36.1550 -36.1550
   -36.1550 -36.1548 -36.1548 -36.1547 -36.1547 -36.1547 -36.1547 -36.1546
   -36.1545 -36.1545 -36.1544 -36.1543 -36.1543 -36.1542 -36.1541 -36.1541
   -36.1540 -36.1540 -36.1540 -36.1540 -36.1540 -36.1539 -36.1539 -36.1539
   -36.1539 -36.1538 -36.1537 -36.1537 -36.1536 -36.1534 -36.1533 -36.1528
   -36.1513 -36.1509 -36.1407 -36.1388 -36.1387 -36.1385 -36.1383 -36.1382
   -36.1381 -36.1380 -36.1380 -36.1379 -36.1378 -36.1378 -36.1377 -36.1377
   -36.1375 -36.1375 -36.1373 -36.1367 -36.1364 -36.1360 -36.1358 -36.1355
   -36.1353 -36.1353 -36.1353 -36.1351 -36.1350 -36.1350 -36.1349 -36.1348
   -36.1347 -36.1347 -36.1347 -36.1346 -36.1344 -36.1325 -27.0794 -27.0794
   -27.0667 -27.0665 -27.0665 -27.0662 -27.0647 -27.0644 -27.0644 -27.0640
   -27.0366 -27.0363 -27.0363 -27.0361 -27.0190 -27.0188 -27.0188 -27.0187
   -27.0164 -27.0164 -26.9778 -26.9776 -26.9776 -26.9774 -26.9750 -26.9749
   -26.9689 -26.9688 -26.9688 -26.9686 -26.9606 -26.9606 -26.9600 -26.9600
   -26.9527 -26.9526 -26.9476 -26.9476 -26.9451 -26.9450 -26.9428 -26.9428
   -26.9428 -26.9428 -26.9363 -26.9363 -26.9363 -26.9363 -26.9346 -26.9346
   -26.9298 -26.9298 -26.9298 -26.9298  -3.0210  -2.9004  -2.3961  -2.2866
    -2.1365  -2.1355  -2.0354  -2.0344  -1.8348  -1.7379  -1.7370  -1.6581
    -1.6573  -1.6319  -1.6137  -1.5450  -1.5281  -1.4025  -1.4015  -1.3696
    -1.2959  -1.2951  -1.2660  -1.2648  -1.2638  -1.2632  -1.2129  -1.2118
    -1.1568  -1.1163  -1.1151  -1.0778  -0.9898  -0.9883  -0.9557  -0.9542
     5.3568   5.5252   5.6798   5.8254   5.8256   5.9750   5.9765   5.9767
     6.0693   6.0695   6.0951   6.1438   6.1439   6.2568   6.2576   6.4164
     6.4171   6.5098   6.5104   6.5513   6.5520   6.5940   6.7632   6.7924
     6.7931   6.8177   6.8882   6.8889   6.9357   6.9362   7.0817   7.0824
     7.0854   7.1919   7.1960   7.2108   7.2113   7.3702   7.3708   7.5172
     7.5180   7.5239   7.5243   7.5716   7.6289   7.6300   7.7471   7.7475
     7.8013   7.8016   7.8672   7.9589   7.9594   8.1432   8.2536   8.2540
     8.3625   8.3633   8.4091   8.4093   8.4101   8.4622   8.4633   8.4652
     8.5188   8.5199   8.5552   8.5728   8.6659   8.6673   8.7861   8.9264
     8.9413   8.9766   9.0248   9.3717   9.3736   9.4453   9.4464   9.4595
     9.4609   9.4620   9.4787   9.4909   9.4917   9.5148   9.5196   9.5202
     9.5252   9.5374   9.5388   9.6446   9.6456   9.6839   9.7246   9.7466
     9.7823   9.8321   9.8328   9.8414   9.8422   9.9854  10.0132  10.1226
    10.1271  10.1277  10.2228  10.3389  10.4897  10.4929  10.5144  10.5160
    10.5303  10.5310  10.5795  10.5819  10.6098  10.6104  10.6266  10.6899
    11.0762  11.0771  11.1796  11.1803  11.3666  11.6373

          k = 0.0000-0.2887 0.1957 ( 98372 PWs)   bands (ev):

   -62.8121 -62.8121 -62.8099 -62.8098 -62.8090 -62.8090 -62.8090 -62.8089
   -62.8080 -62.8078 -62.8078 -62.8078 -62.8075 -62.8074 -62.8067 -62.8067
   -62.8066 -62.8065 -36.2014 -36.2014 -36.1996 -36.1994 -36.1990 -36.1990
   -36.1988 -36.1986 -36.1985 -36.1985 -36.1985 -36.1984 -36.1984 -36.1984
   -36.1984 -36.1984 -36.1983 -36.1983 -36.1982 -36.1982 -36.1981 -36.1981
   -36.1981 -36.1981 -36.1981 -36.1980 -36.1979 -36.1979 -36.1979 -36.1979
   -36.1978 -36.1977 -36.1977 -36.1977 -36.1975 -36.1974 -36.1973 -36.1972
   -36.1971 -36.1971 -36.1971 -36.1971 -36.1970 -36.1969 -36.1969 -36.1968
   -36.1968 -36.1966 -36.1965 -36.1965 -36.1965 -36.1964 -36.1964 -36.1964
   -36.1963 -36.1963 -36.1963 -36.1963 -36.1962 -36.1962 -36.1961 -36.1961
   -36.1960 -36.1960 -36.1958 -36.1958 -36.1957 -36.1954 -36.1953 -36.1951
   -36.1934 -36.1933 -36.1589 -36.1585 -36.1569 -36.1565 -36.1562 -36.1562
   -36.1561 -36.1561 -36.1559 -36.1559 -36.1558 -36.1557 -36.1557 -36.1556
   -36.1556 -36.1556 -36.1556 -36.1555 -36.1555 -36.1554 -36.1553 -36.1553
   -36.1553 -36.1552 -36.1552 -36.1552 -36.1552 -36.1552 -36.1551 -36.1551
   -36.1551 -36.1551 -36.1551 -36.1550 -36.1550 -36.1550 -36.1550 -36.1550
   -36.1550 -36.1548 -36.1548 -36.1547 -36.1547 -36.1547 -36.1547 -36.1546
   -36.1546 -36.1545 -36.1544 -36.1543 -36.1543 -36.1542 -36.1541 -36.1541
   -36.1540 -36.1540 -36.1540 -36.1540 -36.1540 -36.1539 -36.1539 -36.1539
   -36.1538 -36.1538 -36.1537 -36.1537 -36.1535 -36.1534 -36.1533 -36.1528
   -36.1513 -36.1509 -36.1407 -36.1388 -36.1387 -36.1384 -36.1383 -36.1382
   -36.1380 -36.1380 -36.1380 -36.1380 -36.1378 -36.1378 -36.1377 -36.1377
   -36.1375 -36.1375 -36.1373 -36.1367 -36.1364 -36.1360 -36.1358 -36.1355
   -36.1353 -36.1353 -36.1353 -36.1351 -36.1350 -36.1350 -36.1349 -36.1349
   -36.1347 -36.1347 -36.1347 -36.1345 -36.1344 -36.1325 -27.0794 -27.0794
   -27.0668 -27.0665 -27.0665 -27.0662 -27.0648 -27.0644 -27.0644 -27.0640
   -27.0366 -27.0363 -27.0363 -27.0360 -27.0191 -27.0188 -27.0188 -27.0186
   -27.0164 -27.0164 -26.9778 -26.9776 -26.9776 -26.9774 -26.9749 -26.9749
   -26.9689 -26.9688 -26.9688 -26.9687 -26.9606 -26.9606 -26.9600 -26.9600
   -26.9527 -26.9527 -26.9476 -26.9476 -26.9450 -26.9450 -26.9429 -26.9428
   -26.9428 -26.9427 -26.9363 -26.9363 -26.9363 -26.9363 -26.9346 -26.9345
   -26.9298 -26.9298 -26.9298 -26.9298  -3.0210  -2.9004  -2.3960  -2.2865
    -2.1367  -2.1354  -2.0356  -2.0343  -1.8348  -1.7381  -1.7370  -1.6583
    -1.6572  -1.6319  -1.6135  -1.5449  -1.5282  -1.4023  -1.4015  -1.3697
    -1.2959  -1.2951  -1.2656  -1.2649  -1.2639  -1.2630  -1.2129  -1.2118
    -1.1569  -1.1162  -1.1151  -1.0780  -0.9897  -0.9883  -0.9557  -0.9542
     5.3568   5.5250   5.6795   5.8253   5.8256   5.9750   5.9767   5.9770
     6.0694   6.0698   6.0951   6.1436   6.1439   6.2567   6.2580   6.4164
     6.4172   6.5097   6.5105   6.5508   6.5516   6.5945   6.7633   6.7921
     6.7926   6.8179   6.8882   6.8893   6.9353   6.9362   7.0823   7.0832
     7.0856   7.1922   7.1954   7.2106   7.2116   7.3698   7.3706   7.5167
     7.5180   7.5237   7.5247   7.5720   7.6290   7.6295   7.7467   7.7475
     7.8013   7.8018   7.8670   7.9585   7.9591   8.1428   8.2539   8.2545
     8.3624   8.3631   8.4089   8.4091   8.4106   8.4618   8.4625   8.4658
     8.5183   8.5197   8.5554   8.5730   8.6660   8.6678   8.7857   8.9261
     8.9410   8.9773   9.0255   9.3717   9.3736   9.4450   9.4463   9.4590
     9.4610   9.4624   9.4786   9.4909   9.4922   9.5140   9.5194   9.5208
     9.5250   9.5375   9.5390   9.6449   9.6461   9.6836   9.7249   9.7477
     9.7833   9.8321   9.8333   9.8408   9.8415   9.9846  10.0133  10.1227
    10.1273  10.1282  10.2223  10.3384  10.4892  10.4927  10.5146  10.5160
    10.5301  10.5313  10.5807  10.5819  10.6093  10.6105  10.6269  10.6890
    11.0761  11.0770  11.1795  11.1806  11.3666  11.6372

          k = 0.0000 0.2887 0.1957 ( 98372 PWs)   bands (ev):

   -62.8121 -62.8121 -62.8099 -62.8098 -62.8090 -62.8090 -62.8090 -62.8089
   -62.8080 -62.8078 -62.8078 -62.8078 -62.8075 -62.8074 -62.8067 -62.8067
   -62.8066 -62.8065 -36.2014 -36.2014 -36.1996 -36.1994 -36.1990 -36.1990
   -36.1988 -36.1986 -36.1985 -36.1985 -36.1985 -36.1984 -36.1984 -36.1984
   -36.1984 -36.1984 -36.1984 -36.1983 -36.1982 -36.1982 -36.1981 -36.1981
   -36.1981 -36.1981 -36.1981 -36.1980 -36.1979 -36.1979 -36.1979 -36.1979
   -36.1978 -36.1977 -36.1977 -36.1977 -36.1975 -36.1974 -36.1973 -36.1972
   -36.1971 -36.1971 -36.1971 -36.1971 -36.1970 -36.1969 -36.1969 -36.1968
   -36.1968 -36.1966 -36.1965 -36.1965 -36.1965 -36.1964 -36.1964 -36.1964
   -36.1963 -36.1963 -36.1963 -36.1963 -36.1962 -36.1962 -36.1961 -36.1961
   -36.1960 -36.1960 -36.1958 -36.1958 -36.1957 -36.1954 -36.1953 -36.1951
   -36.1934 -36.1933 -36.1589 -36.1585 -36.1569 -36.1565 -36.1562 -36.1562
   -36.1561 -36.1561 -36.1559 -36.1559 -36.1558 -36.1557 -36.1557 -36.1556
   -36.1556 -36.1556 -36.1556 -36.1555 -36.1555 -36.1554 -36.1553 -36.1553
   -36.1553 -36.1552 -36.1552 -36.1552 -36.1552 -36.1552 -36.1551 -36.1551
   -36.1551 -36.1551 -36.1551 -36.1550 -36.1550 -36.1550 -36.1550 -36.1550
   -36.1550 -36.1548 -36.1548 -36.1547 -36.1547 -36.1547 -36.1547 -36.1546
   -36.1546 -36.1545 -36.1544 -36.1543 -36.1543 -36.1542 -36.1541 -36.1541
   -36.1540 -36.1540 -36.1540 -36.1540 -36.1540 -36.1539 -36.1539 -36.1539
   -36.1538 -36.1538 -36.1537 -36.1537 -36.1535 -36.1534 -36.1533 -36.1528
   -36.1513 -36.1509 -36.1407 -36.1388 -36.1387 -36.1384 -36.1383 -36.1382
   -36.1380 -36.1380 -36.1380 -36.1380 -36.1378 -36.1378 -36.1378 -36.1377
   -36.1375 -36.1375 -36.1373 -36.1367 -36.1364 -36.1360 -36.1358 -36.1355
   -36.1353 -36.1353 -36.1353 -36.1351 -36.1350 -36.1350 -36.1349 -36.1349
   -36.1347 -36.1347 -36.1347 -36.1345 -36.1344 -36.1325 -27.0794 -27.0794
   -27.0668 -27.0665 -27.0665 -27.0662 -27.0648 -27.0644 -27.0644 -27.0640
   -27.0366 -27.0363 -27.0363 -27.0360 -27.0191 -27.0188 -27.0188 -27.0186
   -27.0164 -27.0164 -26.9778 -26.9776 -26.9776 -26.9774 -26.9749 -26.9749
   -26.9689 -26.9688 -26.9688 -26.9687 -26.9606 -26.9606 -26.9600 -26.9600
   -26.9527 -26.9527 -26.9476 -26.9476 -26.9450 -26.9450 -26.9429 -26.9428
   -26.9428 -26.9427 -26.9363 -26.9363 -26.9363 -26.9363 -26.9346 -26.9345
   -26.9298 -26.9298 -26.9298 -26.9298  -3.0210  -2.9004  -2.3960  -2.2865
    -2.1367  -2.1354  -2.0356  -2.0343  -1.8348  -1.7381  -1.7369  -1.6583
    -1.6572  -1.6319  -1.6135  -1.5449  -1.5282  -1.4023  -1.4015  -1.3697
    -1.2959  -1.2951  -1.2657  -1.2649  -1.2638  -1.2631  -1.2129  -1.2118
    -1.1570  -1.1162  -1.1151  -1.0780  -0.9897  -0.9883  -0.9557  -0.9542
     5.3568   5.5250   5.6796   5.8255   5.8257   5.9750   5.9765   5.9769
     6.0693   6.0697   6.0952   6.1438   6.1440   6.2565   6.2578   6.4163
     6.4172   6.5097   6.5105   6.5512   6.5520   6.5941   6.7633   6.7924
     6.7930   6.8179   6.8880   6.8890   6.9356   6.9364   7.0815   7.0825
     7.0854   7.1923   7.1960   7.2105   7.2116   7.3700   7.3708   7.5169
     7.5182   7.5233   7.5244   7.5720   7.6291   7.6296   7.7467   7.7475
     7.8012   7.8018   7.8668   7.9589   7.9596   8.1429   8.2535   8.2540
     8.3621   8.3628   8.4091   8.4092   8.4106   8.4620   8.4626   8.4658
     8.5186   8.5200   8.5554   8.5730   8.6657   8.6676   8.7858   8.9261
     8.9410   8.9773   9.0255   9.3717   9.3736   9.4452   9.4464   9.4591
     9.4609   9.4624   9.4785   9.4907   9.4919   9.5140   9.5196   9.5207
     9.5250   9.5376   9.5390   9.6448   9.6461   9.6834   9.7246   9.7477
     9.7833   9.8322   9.8333   9.8412   9.8420   9.9846  10.0133  10.1227
    10.1268  10.1277  10.2227  10.3384  10.4892  10.4927  10.5149  10.5164
    10.5299  10.5311  10.5805  10.5817  10.6094  10.6107  10.6262  10.6895
    11.0762  11.0771  11.1794  11.1805  11.3665  11.6372

     highest occupied level (ev):    11.6373

!    total energy              =  -11463.67588285 Ry
     estimated scf accuracy    <          2.2E-11 Ry

     The total energy is the sum of the following terms:
     one-electron contribution =   -6098.12821529 Ry
     hartree contribution      =    3271.28977815 Ry
     xc contribution           =   -2338.90898276 Ry
     ewald contribution        =   -6296.01200951 Ry
     Dispersion Correction     =      -1.91645344 Ry

     convergence has been achieved in  27 iterations

     Forces acting on atoms (cartesian axes, Ry/au):

     atom    1 type  1   force =    -0.00468533    0.00001494   -0.00687506
     atom    2 type  1   force =     0.00010955   -0.00020204   -0.00023334
     atom    3 type  1   force =     0.00011103    0.00020039   -0.00023472
     atom    4 type  1   force =     0.00006554   -0.00022565   -0.00023641
     atom    5 type  1   force =     0.00006727    0.00022702   -0.00023173
     atom    6 type  1   force =     0.00005489   -0.00000019    0.00002856
     atom    7 type  1   force =     0.00006752    0.00017392   -0.00023565
     atom    8 type  1   force =     0.00005442   -0.00000010    0.00002857
     atom    9 type  1   force =     0.00006583   -0.00017757   -0.00023243
     atom   10 type  1   force =     0.00000012    0.00000182   -0.00000003
     atom   11 type  1   force =    -0.00000025   -0.00000022    0.00000290
     atom   12 type  1   force =     0.00000009   -0.00000199   -0.00000026
     atom   13 type  1   force =     0.00000345    0.00000038   -0.00000014
     atom   14 type  1   force =     0.00000011    0.00000224    0.00000930
     atom   15 type  1   force =     0.00000026   -0.00000158    0.00000935
     atom   16 type  1   force =     0.00000259    0.00000152    0.00000285
     atom   17 type  1   force =     0.00000246   -0.00000170    0.00000293
     atom   18 type  1   force =    -0.00000302    0.00000000    0.00000930
     atom   19 type  2   force =     0.00000385   -0.00000000    0.00066393
     atom   20 type  2   force =     0.00000027    0.00000524    0.00069171
     atom   21 type  2   force =     0.00000170    0.00000203    0.00068959
     atom   22 type  2   force =    -0.00000104   -0.00000231    0.00069256
     atom   23 type  2   force =     0.00000446   -0.00000235    0.00068882
     atom   24 type  2   force =    -0.00000187    0.00000010    0.00068361
     atom   25 type  2   force =    -0.00000347   -0.00000161    0.00069372
     atom   26 type  2   force =    -0.00000042   -0.00000027    0.00068776
     atom   27 type  2   force =     0.00000347   -0.00000125    0.00068786
     atom   28 type  2   force =     0.00174955   -0.00084289    0.00128132
     atom   29 type  2   force =     0.00000845   -0.00000315   -0.00063086
     atom   30 type  2   force =     0.00007954   -0.00012168   -0.00012306
     atom   31 type  2   force =     0.00029042    0.00095834    0.00057230
     atom   32 type  2   force =     0.00004726    0.00007386   -0.00061526
     atom   33 type  2   force =    -0.00003299   -0.00002663   -0.00063842
     atom   34 type  2   force =     0.00000933    0.00000063   -0.00064578
     atom   35 type  2   force =     0.00000358    0.00000247   -0.00061666
     atom   36 type  2   force =    -0.00007967   -0.00004644   -0.00062689
     atom   37 type  2   force =     0.00007658    0.00012393    0.00125543
     atom   38 type  2   force =     0.00000723    0.00000369    0.00074655
     atom   39 type  2   force =     0.00167620    0.00079941    0.00258931
     atom   40 type  2   force =     0.00029186   -0.00092896    0.00192874
     atom   41 type  2   force =    -0.00003458    0.00002724    0.00073951
     atom   42 type  2   force =     0.00004602   -0.00007285    0.00076238
     atom   43 type  2   force =     0.00000266   -0.00000254    0.00076266
     atom   44 type  2   force =     0.00000875   -0.00000118    0.00073118
     atom   45 type  2   force =    -0.00008070    0.00004641    0.00075104
     atom   46 type  2   force =     0.00000365    0.00000004   -0.00071366
     atom   47 type  2   force =     0.00000166   -0.00000210   -0.00068774
     atom   48 type  2   force =     0.00000049   -0.00000534   -0.00068543
     atom   49 type  2   force =     0.00000473    0.00000239   -0.00068842
     atom   50 type  2   force =    -0.00000121    0.00000253   -0.00068478
     atom   51 type  2   force =    -0.00000188    0.00000005   -0.00069369
     atom   52 type  2   force =     0.00000354    0.00000093   -0.00068968
     atom   53 type  2   force =    -0.00000038   -0.00000024   -0.00068986
     atom   54 type  2   force =    -0.00000359    0.00000135   -0.00068376

     Total force =     0.010361     Total SCF correction =     0.000024


     Computing stress (Cartesian axis) and pressure

          total   stress  (Ry/bohr**3)                   (kbar)     P=      -48.18
  -0.00040415  -0.00000036   0.00000002          -59.45       -0.05        0.00
  -0.00000036  -0.00040414  -0.00000000           -0.05      -59.45       -0.00
   0.00000002  -0.00000000  -0.00017438            0.00       -0.00      -25.65


     Writing all to output data dir ./WSe.save/ :
     XML data file, charge density, pseudopotentials, collected wavefunctions
 
     init_run     :     11.59s CPU     13.48s WALL (       1 calls)
     electrons    :    917.63s CPU   1080.86s WALL (       1 calls)
     forces       :      8.26s CPU      8.68s WALL (       1 calls)
     force_london :      0.04s CPU      0.04s WALL (       1 calls)
     stress       :    123.97s CPU    132.07s WALL (       1 calls)
     stres_london :      0.09s CPU      0.16s WALL (       1 calls)

     Called by init_run:
     wfcinit      :     10.57s CPU     12.24s WALL (       1 calls)
     potinit      :      0.06s CPU      0.10s WALL (       1 calls)
     hinit0       :      0.47s CPU      0.62s WALL (       1 calls)

     Called by electrons:
     c_bands      :    864.04s CPU   1018.07s WALL (      28 calls)
     sum_band     :     50.83s CPU     58.24s WALL (      28 calls)
     v_of_rho     :      1.89s CPU      2.14s WALL (      28 calls)
     mix_rho      :      0.69s CPU      0.80s WALL (      28 calls)
     energy_londo :      0.06s CPU      0.06s WALL (       1 calls)

     Called by c_bands:
     init_us_2    :     11.26s CPU     11.35s WALL (     177 calls)
     init_us_2:cp :     11.25s CPU     11.34s WALL (     177 calls)
     cegterg      :    824.38s CPU    963.82s WALL (      84 calls)

     Called by *egterg:
     cdiaghg      :     50.26s CPU    127.67s WALL (     504 calls)
     h_psi        :    473.48s CPU    511.66s WALL (     510 calls)
     g_psi        :      1.98s CPU      2.03s WALL (     423 calls)

     Called by h_psi:
     h_psi:calbec :    123.63s CPU    130.18s WALL (     510 calls)
     vloc_psi     :    234.32s CPU    264.83s WALL (     510 calls)
     add_vuspsi   :    110.54s CPU    111.11s WALL (     510 calls)

     General routines
     calbec       :    132.11s CPU    143.02s WALL (     525 calls)
     fft          :      1.37s CPU      1.70s WALL (     305 calls)
     ffts         :      0.08s CPU      0.10s WALL (      28 calls)
     fftw         :    244.61s CPU    277.04s WALL (  214378 calls)
 
     Parallel routines
     fft_scatt_xy :     33.19s CPU     37.08s WALL (  214711 calls)
     fft_scatt_yz :    134.08s CPU    154.33s WALL (  214711 calls)
 
     PWSCF        :  17m43.48s CPU  20m47.40s WALL

 
   This run was terminated on:  17:30: 6   5Nov2024            

=------------------------------------------------------------------------------=
   JOB DONE.
=------------------------------------------------------------------------------=
