54   
3    

1    
  0.0123263299851592   0.0000000000000000   0.0157499710824168
  -0.0052024206    0.0000158706   -0.0085217998
   0.0000377094   -0.0002489994   -0.0001615098
   0.0000293794    0.0002469406   -0.0001637698
   0.0000581894   -0.0002313994   -0.0001651998
   0.0000616394    0.0002340106   -0.0001601098
   0.0000633994    0.0000000806    0.0000048202
   0.0000610094    0.0002609506   -0.0001639298
   0.0000633494    0.0000003906    0.0000049402
   0.0000588794   -0.0002652494   -0.0001613098
   0.0000025394    0.0000020406    0.0000030402
  -0.0000040906   -0.0000001394    0.0000163302
   0.0000027594   -0.0000027194    0.0000025302
   0.0000068394    0.0000001906    0.0000025402
   0.0000038494    0.0000056806    0.0000135902
   0.0000036994   -0.0000051994    0.0000136502
   0.0000049194    0.0000055706    0.0000159902
   0.0000052894   -0.0000048894    0.0000162202
  -0.0000056606    0.0000002706    0.0000135202
   0.0000137694   -0.0000005294    0.0009119802
   0.0000062194    0.0000107306    0.0009701802
   0.0000003194    0.0000053506    0.0009658302
  -0.0000042006   -0.0000029294    0.0009707702
   0.0000134394    0.0000001006    0.0009649702
  -0.0000053906    0.0000002506    0.0009505302
  -0.0000056306   -0.0000061794    0.0009734502
  -0.0000011506    0.0000000606    0.0009550302
   0.0000062194   -0.0000072994    0.0009633102
   0.0021184794   -0.0010725694    0.0014062002
   0.0000196494    0.0000031506   -0.0009142098
   0.0000164994   -0.0001424294   -0.0003735598
   0.0002626694    0.0012070806    0.0005084402
   0.0000593194    0.0000885006   -0.0008524898
  -0.0000134606   -0.0000465594   -0.0009269498
   0.0000115594   -0.0000039294   -0.0009212498
   0.0000169294    0.0000013506   -0.0009074798
  -0.0000932206   -0.0000412794   -0.0008899698
   0.0000135194    0.0001444006    0.0014838402
   0.0000182594   -0.0000027694    0.0009430302
   0.0020312494    0.0010193406    0.0031725302
   0.0002654294   -0.0011709594    0.0023354602
  -0.0000147706    0.0000462306    0.0009301702
   0.0000563594   -0.0000873694    0.0010043302
   0.0000158894   -0.0000005694    0.0009513002
   0.0000110094    0.0000040406    0.0009350402
  -0.0000940006    0.0000418206    0.0009674602
   0.0000134594   -0.0000004894   -0.0009458798
  -0.0000001106   -0.0000058794   -0.0008911498
   0.0000068894   -0.0000112594   -0.0008864198
   0.0000135294   -0.0000003394   -0.0008914698
  -0.0000041106    0.0000028106   -0.0008858398
  -0.0000053906    0.0000001806   -0.0009065198
   0.0000056294    0.0000077906   -0.0008942498
  -0.0000012206    0.0000000906   -0.0009020098
  -0.0000049206    0.0000066606   -0.0008839498

19   
  0.0123263299851592   0.0000000000000000   0.0157499710824168
   0.0000135004   -0.0000001094   -0.0000477900
   0.0000002604   -0.0000084094    0.0000059900
   0.0000060604   -0.0000036194    0.0000109400
   0.0000068004    0.0000011406    0.0000042400
  -0.0000065196   -0.0000005894    0.0000128100
  -0.0000012396   -0.0000001994   -0.0000045600
   0.0000081004    0.0000038906    0.0000016500
  -0.0000054396   -0.0000000394   -0.0000089100
   0.0000007004    0.0000074106    0.0000152600
   0.0021998104   -0.0011176694    0.0023079300
   0.0000186004    0.0000111106    0.0000456500
  -0.0000599196   -0.0001872794    0.0006436100
   0.0002642304    0.0012949206    0.0014657600
   0.0000689404    0.0000947406    0.0000987600
  -0.0000254496   -0.0000398894    0.0000412000
   0.0000040204   -0.0000081794    0.0000438100
   0.0000235604   -0.0000026494    0.0000473500
  -0.0000947896   -0.0000539994    0.0000698600
  -0.0029532196    0.0000111406   -0.0039606700
   0.0001973004    0.0000015106    0.0008852000
   0.0002647104    0.0000148406    0.0008321300
   0.0000497704   -0.0001521294    0.0008396700
   0.0000283404    0.0000830606    0.0008776600
  -0.0000050396    0.0000001306    0.0009632300
   0.0000140504   -0.0000780694    0.0008664000
  -0.0000048296   -0.0000002294    0.0009631200
   0.0000637904    0.0001302206    0.0008513000
  -0.0000604996    0.0000259706   -0.0009286800
   0.0000013504   -0.0000037694   -0.0009605600
   0.0001066704    0.0000699606   -0.0007993200
  -0.0000150796   -0.0000962994   -0.0008638100
  -0.0000055796    0.0000002706   -0.0009729800
   0.0000056404   -0.0000064294   -0.0009641100
   0.0000046404    0.0000019206   -0.0009579500
  -0.0000016896    0.0000018806   -0.0009631200
  -0.0000059096    0.0000066006   -0.0009686200
  -0.0000011396    0.0000005506    0.0009026500
  -0.0000033096   -0.0000001094    0.0009003400
   0.0000001104   -0.0000000894    0.0009021800
  -0.0000000796   -0.0000006294    0.0009023600
   0.0000007504    0.0000015206    0.0008969700
  -0.0000022396    0.0000002106    0.0008994300
  -0.0000008496    0.0000014606    0.0009001600
  -0.0000009196   -0.0000011794    0.0009004800
  -0.0000020696   -0.0000015294    0.0008982300
  -0.0000624296   -0.0000000494   -0.0004301400
   0.0000699604    0.0000651606   -0.0008493200
  -0.0000180396    0.0000156206   -0.0009190700
  -0.0000833596    0.0000128606   -0.0008740800
   0.0000307204    0.0000230206   -0.0008951600
   0.0000096804    0.0000000706   -0.0009292200
  -0.0000392096   -0.0001141294   -0.0008390400
   0.0000096004   -0.0000001694   -0.0009294100
  -0.0000128196   -0.0000037494   -0.0009298100

19   
 -0.0123263299851592   0.0000000000000000  -0.0157499710824168
  -0.0000138202   -0.0000001300    0.0000475902
  -0.0000002502    0.0000080800   -0.0000065598
  -0.0000066802    0.0000033100   -0.0000116798
  -0.0000069202   -0.0000012800   -0.0000046798
   0.0000063598    0.0000005800   -0.0000135098
   0.0000009498   -0.0000002500    0.0000040302
  -0.0000080502   -0.0000036300   -0.0000021598
   0.0000053398    0.0000000900    0.0000084902
  -0.0000014402   -0.0000076300   -0.0000161998
  -0.0021054202    0.0010633100   -0.0022092998
  -0.0000183802   -0.0000113400   -0.0000441098
   0.0000649598    0.0001895800   -0.0006492998
  -0.0002635702   -0.0012623500   -0.0014388598
  -0.0000693202   -0.0000937700   -0.0000960098
   0.0000253398    0.0000393300   -0.0000410498
  -0.0000042902    0.0000083800   -0.0000419298
  -0.0000237602    0.0000034300   -0.0000462298
   0.0000932398    0.0000551500   -0.0000687498
   0.0028617498    0.0000105500    0.0057494102
  -0.0001957302   -0.0000026800    0.0010328602
  -0.0002671702   -0.0000149400    0.0010879802
  -0.0000487402    0.0001510600    0.0010797202
  -0.0000302802   -0.0000834300    0.0010405102
   0.0000051598   -0.0000001600    0.0009561702
  -0.0000147302    0.0000792400    0.0010523602
   0.0000046898    0.0000000700    0.0009560902
  -0.0000637902   -0.0001298700    0.0010683102
   0.0000607298   -0.0000256100   -0.0009884898
  -0.0000012702    0.0000038700   -0.0009580098
  -0.0001076102   -0.0000711100   -0.0011204198
   0.0000161098    0.0000970000   -0.0010543198
   0.0000057998   -0.0000001800   -0.0009455198
  -0.0000059002    0.0000064800   -0.0009540098
  -0.0000043902   -0.0000017400   -0.0009602398
   0.0000016998   -0.0000018000   -0.0009554098
   0.0000058598   -0.0000067200   -0.0009495698
   0.0000014798   -0.0000003900    0.0008941202
   0.0000033498    0.0000003100    0.0008966202
  -0.0000001802   -0.0000000200    0.0008948602
   0.0000004598    0.0000007800    0.0008945402
  -0.0000005502   -0.0000016600    0.0008997102
   0.0000020798   -0.0000003000    0.0008972102
   0.0000009498   -0.0000012700    0.0008963502
   0.0000010398    0.0000013400    0.0008965102
   0.0000020698    0.0000016600    0.0008982102
   0.0000616198   -0.0000000900   -0.0013626198
  -0.0000702002   -0.0000661700   -0.0009474698
   0.0000187198   -0.0000162800   -0.0008784398
   0.0000829498   -0.0000129300   -0.0009231498
  -0.0000327002   -0.0000233000   -0.0009028298
  -0.0000091902   -0.0000000500   -0.0008674898
   0.0000388698    0.0001126300   -0.0009575198
  -0.0000098802    0.0000001200   -0.0008676198
   0.0000126398    0.0000047300   -0.0008681998
