
     Program PWSCF v.7.3 starts on  5Nov2024 at 17:44: 8 

     This program is part of the open-source Quantum ESPRESSO suite
     for quantum simulation of materials; please cite
         "P. Giannozzi et al., J. Phys.:Condens. Matter 21 395502 (2009);
         "P. Giannozzi et al., J. Phys.:Condens. Matter 29 465901 (2017);
         "P. Giannozzi et al., J. Chem. Phys. 152 154105 (2020);
          URL http://www.quantum-espresso.org", 
     in publications or presentations arising from this work. More details at
     http://www.quantum-espresso.org/quote

     Parallel version (MPI & OpenMP), running on     256 processor cores
     Number of MPI processes:               256
     Threads/MPI process:                     1

     MPI processes distributed on     1 nodes
     483712 MiB available memory on the printing compute node when the environment starts
 
     Waiting for input...
     Reading input from standard input

     Current dimensions of program PWSCF are:
     Max number of different atomic species (ntypx) = 10
     Max number of k-points (npk) =  40000
     Max angular momentum in pseudopotentials (lmaxx) =  4
 
     K-points division:     npool     =       4
     R & G space division:  proc/nbgrp/npool/nimage =      64
     Subspace diagonalization in iterative solution of the eigenvalue problem:
     one sub-group per band group will be used
     scalapack distributed-memory algorithm (size of sub-group:  4*  4 procs)

 
     Parallelization info
     --------------------
     sticks:   dense  smooth     PW     G-vecs:    dense   smooth      PW
     Min         118     118     30                10594    10594    1400
     Max         119     119     31                10601    10601    1409
     Sum        7555    7555   1957               678177   678177   89901
 
     Using Pencil Decomposition
 


     bravais-lattice index     =            0
     lattice parameter (alat)  =      18.5058  a.u.
     unit-cell volume          =    7012.9920 (a.u.)^3
     number of atoms/cell      =           54
     number of atomic types    =            2
     number of electrons       =       828.00
     number of Kohn-Sham states=          414
     kinetic-energy cutoff     =      80.0000  Ry
     charge density cutoff     =     320.0000  Ry
     scf convergence threshold =      1.0E-10
     mixing beta               =       0.5000
     number of iterations used =            8  plain     mixing
     Exchange-correlation= PBE
                           (   1   4   3   4   0   0   0)

     celldm(1)=  18.505845  celldm(2)=   0.000000  celldm(3)=   0.000000
     celldm(4)=   0.000000  celldm(5)=   0.000000  celldm(6)=   0.000000

     crystal axes: (cart. coord. in units of alat)
               a(1) = (   1.000000   0.000000   0.000000 )  
               a(2) = (  -0.500000   0.866025   0.000000 )  
               a(3) = (   0.000000   0.000000   1.277750 )  

     reciprocal axes: (cart. coord. in units 2 pi/alat)
               b(1) = (  1.000000  0.577350  0.000000 )  
               b(2) = (  0.000000  1.154701  0.000000 )  
               b(3) = (  0.000000  0.000000  0.782626 )  


     PseudoPot. # 1 for W  read from file:
     /users/rkarkee/pbe_pseudo/W.upf
     MD5 check sum: cb94e439a9e4ea809831d6e90c63864e
     Pseudo is Norm-conserving + core correction, Zval = 14.0
     Generated using ONCVPSP code by D. R. Hamann
     Using radial grid of 1396 points,  8 beta functions with: 
                l(1) =   0
                l(2) =   0
                l(3) =   1
                l(4) =   1
                l(5) =   2
                l(6) =   2
                l(7) =   3
                l(8) =   3

     PseudoPot. # 2 for Se read from file:
     /users/rkarkee/pbe_pseudo/Se.upf
     MD5 check sum: 3cc46b3642295b3f4fdae63b742ce36d
     Pseudo is Norm-conserving + core correction, Zval = 16.0
     Generated using ONCVPSP code by D. R. Hamann
     Using radial grid of 1214 points,  6 beta functions with: 
                l(1) =   0
                l(2) =   0
                l(3) =   1
                l(4) =   1
                l(5) =   2
                l(6) =   2

     atomic species   valence    mass     pseudopotential
     W                14.00   183.84000     W ( 1.00)
     Se               16.00    78.96000     Se( 1.00)

     No symmetry found



   Cartesian axes

     site n.     atom                  positions (alat units)
         1        W      tau(   1) = (  -0.0000000   0.1924501   0.9583127  )
         2        W      tau(   2) = (   0.3333333   0.1924501   0.9583127  )
         3        W      tau(   3) = (   0.6666667   0.1924501   0.9583127  )
         4        W      tau(   4) = (  -0.1666667   0.4811252   0.9583127  )
         5        W      tau(   5) = (   0.1666667   0.4811252   0.9583127  )
         6        W      tau(   6) = (   0.5000000   0.4811252   0.9583127  )
         7        W      tau(   7) = (  -0.3333333   0.7698004   0.9583127  )
         8        W      tau(   8) = (   0.0000000   0.7698004   0.9583127  )
         9        W      tau(   9) = (   0.3333333   0.7698004   0.9583127  )
        10        W      tau(  10) = (   0.1666667   0.0962250   0.3194376  )
        11        W      tau(  11) = (   0.5000000   0.0962250   0.3194376  )
        12        W      tau(  12) = (   0.8333333   0.0962250   0.3194376  )
        13        W      tau(  13) = (  -0.0000000   0.3849002   0.3194376  )
        14        W      tau(  14) = (   0.3333333   0.3849002   0.3194376  )
        15        W      tau(  15) = (   0.6666667   0.3849002   0.3194376  )
        16        W      tau(  16) = (  -0.1666667   0.6735753   0.3194376  )
        17        W      tau(  17) = (   0.1666667   0.6735753   0.3194376  )
        18        W      tau(  18) = (   0.5000000   0.6735753   0.3194376  )
        19        Se     tau(  19) = (  -0.0006661   0.1924501   0.1468095  )
        20        Se     tau(  20) = (   0.3333333   0.1924501   0.1476605  )
        21        Se     tau(  21) = (   0.6666667   0.1924501   0.1476605  )
        22        Se     tau(  22) = (  -0.1666667   0.4811252   0.1476605  )
        23        Se     tau(  23) = (   0.1666667   0.4811252   0.1476605  )
        24        Se     tau(  24) = (   0.5000000   0.4811252   0.1476605  )
        25        Se     tau(  25) = (  -0.3333333   0.7698004   0.1476605  )
        26        Se     tau(  26) = (   0.0000000   0.7698004   0.1476605  )
        27        Se     tau(  27) = (   0.3333333   0.7698004   0.1476605  )
        28        Se     tau(  28) = (   0.1666667   0.0962250   1.1300897  )
        29        Se     tau(  29) = (   0.5000000   0.0962250   1.1300897  )
        30        Se     tau(  30) = (   0.8333333   0.0962250   1.1300897  )
        31        Se     tau(  31) = (  -0.0000000   0.3849002   1.1300897  )
        32        Se     tau(  32) = (   0.3333333   0.3849002   1.1300897  )
        33        Se     tau(  33) = (   0.6666667   0.3849002   1.1300897  )
        34        Se     tau(  34) = (  -0.1666667   0.6735753   1.1300897  )
        35        Se     tau(  35) = (   0.1666667   0.6735753   1.1300897  )
        36        Se     tau(  36) = (   0.5000000   0.6735753   1.1300897  )
        37        Se     tau(  37) = (   0.1666667   0.0962250   0.7865357  )
        38        Se     tau(  38) = (   0.5000000   0.0962250   0.7865357  )
        39        Se     tau(  39) = (   0.8333333   0.0962250   0.7865357  )
        40        Se     tau(  40) = (  -0.0000000   0.3849002   0.7865357  )
        41        Se     tau(  41) = (   0.3333333   0.3849002   0.7865357  )
        42        Se     tau(  42) = (   0.6666667   0.3849002   0.7865357  )
        43        Se     tau(  43) = (  -0.1666667   0.6735753   0.7865357  )
        44        Se     tau(  44) = (   0.1666667   0.6735753   0.7865357  )
        45        Se     tau(  45) = (   0.5000000   0.6735753   0.7865357  )
        46        Se     tau(  46) = (  -0.0000000   0.1924501   0.4912146  )
        47        Se     tau(  47) = (   0.3333333   0.1924501   0.4912146  )
        48        Se     tau(  48) = (   0.6666667   0.1924501   0.4912146  )
        49        Se     tau(  49) = (  -0.1666667   0.4811252   0.4912146  )
        50        Se     tau(  50) = (   0.1666667   0.4811252   0.4912146  )
        51        Se     tau(  51) = (   0.5000000   0.4811252   0.4912146  )
        52        Se     tau(  52) = (  -0.3333333   0.7698004   0.4912146  )
        53        Se     tau(  53) = (   0.0000000   0.7698004   0.4912146  )
        54        Se     tau(  54) = (   0.3333333   0.7698004   0.4912146  )

     -------------------------------------------------
     Parameters for Dispersion (Grimme-D2) Correction:
     -------------------------------------------------
       atom      VdW radius       C_6     

        W          3.349       2818.308
        Se         3.347        438.498

     number of k points=    12
                       cart. coord. in units 2pi/alat
        k(    1) = (   0.2500000   0.4330127   0.1956564), wk =   0.1666667
        k(    2) = (   0.2500000  -0.1443376   0.1956564), wk =   0.1666667
        k(    3) = (  -0.2500000  -0.4330127   0.1956564), wk =   0.1666667
        k(    4) = (  -0.2500000   0.4330127  -0.1956564), wk =   0.1666667
        k(    5) = (   0.2500000  -0.4330127  -0.1956564), wk =   0.1666667
        k(    6) = (   0.5000000  -0.0000000   0.1956564), wk =   0.1666667
        k(    7) = (  -0.5000000   0.0000000   0.1956564), wk =   0.1666667
        k(    8) = (  -0.2500000   0.1443376   0.1956564), wk =   0.1666667
        k(    9) = (  -0.2500000  -0.1443376  -0.1956564), wk =   0.1666667
        k(   10) = (   0.2500000   0.1443376  -0.1956564), wk =   0.1666667
        k(   11) = (   0.0000000  -0.2886751   0.1956564), wk =   0.1666667
        k(   12) = (   0.0000000   0.2886751   0.1956564), wk =   0.1666667

     Dense  grid:   678177 G-vectors     FFT dimensions: ( 108, 108, 135)

     Estimated max dynamical RAM per process >     115.36 MB

     Estimated total dynamical RAM >      28.35 GB

     Initial potential from superposition of free atoms

     starting charge     827.9882, renormalised to     828.0000
     Starting wfcs are  504 randomized atomic wfcs

     total cpu time spent up to now is       11.8 secs

     Self-consistent Calculation

     iteration #  1     ecut=    80.00 Ry     beta= 0.50
     Davidson diagonalization with overlap
     ethr =  1.00E-02,  avg # of iterations =  2.0

     Threshold (ethr) on eigenvalues was too large:
     Diagonalizing with lowered threshold

     Davidson diagonalization with overlap
     ethr =  9.49E-05,  avg # of iterations =  5.1

     total cpu time spent up to now is       85.3 secs

     total energy              =  -11463.44425601 Ry
     estimated scf accuracy    <       1.28775418 Ry

     iteration #  2     ecut=    80.00 Ry     beta= 0.50
     Davidson diagonalization with overlap
     ethr =  1.56E-04,  avg # of iterations =  5.0

     total cpu time spent up to now is      120.1 secs

     total energy              =  -11463.50706158 Ry
     estimated scf accuracy    <       0.88365794 Ry

     iteration #  3     ecut=    80.00 Ry     beta= 0.50
     Davidson diagonalization with overlap
     ethr =  1.07E-04,  avg # of iterations =  6.0

     total cpu time spent up to now is      156.2 secs

     total energy              =  -11463.68867598 Ry
     estimated scf accuracy    <       0.21926655 Ry

     iteration #  4     ecut=    80.00 Ry     beta= 0.50
     Davidson diagonalization with overlap
     ethr =  2.65E-05,  avg # of iterations =  5.0

     total cpu time spent up to now is      188.4 secs

     total energy              =  -11463.71306755 Ry
     estimated scf accuracy    <       0.01273631 Ry

     iteration #  5     ecut=    80.00 Ry     beta= 0.50
     Davidson diagonalization with overlap
     ethr =  1.54E-06,  avg # of iterations =  6.4

     total cpu time spent up to now is      233.0 secs

     total energy              =  -11463.72058239 Ry
     estimated scf accuracy    <       0.02711993 Ry

     iteration #  6     ecut=    80.00 Ry     beta= 0.50
     Davidson diagonalization with overlap
     ethr =  1.54E-06,  avg # of iterations =  3.0

     total cpu time spent up to now is      261.3 secs

     total energy              =  -11463.71526988 Ry
     estimated scf accuracy    <       0.01309885 Ry

     iteration #  7     ecut=    80.00 Ry     beta= 0.50
     Davidson diagonalization with overlap
     ethr =  1.54E-06,  avg # of iterations =  6.0

     total cpu time spent up to now is      302.4 secs

     total energy              =  -11463.72069239 Ry
     estimated scf accuracy    <       0.01489415 Ry

     iteration #  8     ecut=    80.00 Ry     beta= 0.50
     Davidson diagonalization with overlap
     ethr =  1.54E-06,  avg # of iterations =  2.0

     total cpu time spent up to now is      327.6 secs

     total energy              =  -11463.71858622 Ry
     estimated scf accuracy    <       0.00913395 Ry

     iteration #  9     ecut=    80.00 Ry     beta= 0.50
     Davidson diagonalization with overlap
     ethr =  1.10E-06,  avg # of iterations =  5.3

     total cpu time spent up to now is      360.6 secs

     total energy              =  -11463.71992125 Ry
     estimated scf accuracy    <       0.00015789 Ry

     iteration # 10     ecut=    80.00 Ry     beta= 0.50
     Davidson diagonalization with overlap
     ethr =  1.91E-08,  avg # of iterations =  6.5

     total cpu time spent up to now is      405.8 secs

     total energy              =  -11463.72003712 Ry
     estimated scf accuracy    <       0.00018074 Ry

     iteration # 11     ecut=    80.00 Ry     beta= 0.50
     Davidson diagonalization with overlap
     ethr =  1.91E-08,  avg # of iterations =  5.7

     total cpu time spent up to now is      438.8 secs

     total energy              =  -11463.72006337 Ry
     estimated scf accuracy    <       0.00000504 Ry

     iteration # 12     ecut=    80.00 Ry     beta= 0.50
     Davidson diagonalization with overlap
     ethr =  6.08E-10,  avg # of iterations =  6.0

     total cpu time spent up to now is      482.9 secs

     total energy              =  -11463.72006437 Ry
     estimated scf accuracy    <       0.00001068 Ry

     iteration # 13     ecut=    80.00 Ry     beta= 0.50
     Davidson diagonalization with overlap
     ethr =  6.08E-10,  avg # of iterations =  6.3

     total cpu time spent up to now is      519.4 secs

     total energy              =  -11463.72006563 Ry
     estimated scf accuracy    <       0.00000064 Ry

     iteration # 14     ecut=    80.00 Ry     beta= 0.50
     Davidson diagonalization with overlap
     ethr =  7.75E-11,  avg # of iterations =  6.6

     total cpu time spent up to now is      562.3 secs

     total energy              =  -11463.72006559 Ry
     estimated scf accuracy    <       0.00000136 Ry

     iteration # 15     ecut=    80.00 Ry     beta= 0.50
     Davidson diagonalization with overlap
     ethr =  7.75E-11,  avg # of iterations =  6.0

     total cpu time spent up to now is      599.5 secs

     total energy              =  -11463.72006578 Ry
     estimated scf accuracy    <       0.00000019 Ry

     iteration # 16     ecut=    80.00 Ry     beta= 0.50
     Davidson diagonalization with overlap
     ethr =  2.30E-11,  avg # of iterations =  6.2

     total cpu time spent up to now is      631.9 secs

     total energy              =  -11463.72006579 Ry
     estimated scf accuracy    <       0.00000009 Ry

     iteration # 17     ecut=    80.00 Ry     beta= 0.50
     Davidson diagonalization with overlap
     ethr =  1.04E-11,  avg # of iterations =  3.9

     total cpu time spent up to now is      660.4 secs

     total energy              =  -11463.72006579 Ry
     estimated scf accuracy    <       0.00000005 Ry

     iteration # 18     ecut=    80.00 Ry     beta= 0.50
     Davidson diagonalization with overlap
     ethr =  5.88E-12,  avg # of iterations =  6.4

     total cpu time spent up to now is      697.1 secs

     total energy              =  -11463.72006579 Ry
     estimated scf accuracy    <       0.00000005 Ry

     iteration # 19     ecut=    80.00 Ry     beta= 0.50
     Davidson diagonalization with overlap
     ethr =  5.88E-12,  avg # of iterations =  3.0

     total cpu time spent up to now is      724.8 secs

     total energy              =  -11463.72006578 Ry
     estimated scf accuracy    <       0.00000002 Ry

     iteration # 20     ecut=    80.00 Ry     beta= 0.50
     Davidson diagonalization with overlap
     ethr =  2.43E-12,  avg # of iterations =  7.0

     total cpu time spent up to now is      765.8 secs

     total energy              =  -11463.72006579 Ry
     estimated scf accuracy    <       0.00000002 Ry

     iteration # 21     ecut=    80.00 Ry     beta= 0.50
     Davidson diagonalization with overlap
     ethr =  2.43E-12,  avg # of iterations =  3.0

     total cpu time spent up to now is      793.8 secs

     total energy              =  -11463.72006579 Ry
     estimated scf accuracy    <          6.3E-09 Ry

     iteration # 22     ecut=    80.00 Ry     beta= 0.50
     Davidson diagonalization with overlap
     ethr =  7.56E-13,  avg # of iterations =  6.5

     total cpu time spent up to now is      829.1 secs

     total energy              =  -11463.72006579 Ry
     estimated scf accuracy    <          5.8E-10 Ry

     iteration # 23     ecut=    80.00 Ry     beta= 0.50
     Davidson diagonalization with overlap
     ethr =  1.00E-13,  avg # of iterations =  6.0

     total cpu time spent up to now is      863.8 secs

     total energy              =  -11463.72006579 Ry
     estimated scf accuracy    <          2.7E-10 Ry

     iteration # 24     ecut=    80.00 Ry     beta= 0.50
     Davidson diagonalization with overlap
     ethr =  1.00E-13,  avg # of iterations =  2.0

     total cpu time spent up to now is      889.1 secs

     End of self-consistent calculation

          k = 0.2500 0.4330 0.1957 ( 84744 PWs)   bands (ev):

   -59.9616 -59.9615 -59.9592 -59.9590 -59.9590 -59.9587 -59.9545 -59.9541
   -59.9541 -59.9538 -59.9525 -59.9523 -59.9523 -59.9523 -59.9522 -59.9517
   -59.9516 -59.9513 -33.6086 -33.6085 -33.6083 -33.6082 -33.6082 -33.6081
   -33.6080 -33.6080 -33.6079 -33.6079 -33.6079 -33.6079 -33.6078 -33.6078
   -33.6077 -33.6076 -33.6076 -33.6075 -33.6075 -33.6074 -33.6074 -33.6074
   -33.6073 -33.6073 -33.6072 -33.6072 -33.6071 -33.6071 -33.6069 -33.6069
   -33.6068 -33.6067 -33.6067 -33.6066 -33.6066 -33.6065 -33.6064 -33.6064
   -33.6063 -33.6062 -33.6060 -33.6059 -33.6059 -33.6058 -33.6056 -33.6055
   -33.6050 -33.6049 -33.6048 -33.6047 -33.6045 -33.6045 -33.6044 -33.6043
   -33.6042 -33.6040 -33.6039 -33.6039 -33.6038 -33.6037 -33.6037 -33.6037
   -33.6036 -33.6035 -33.6033 -33.6033 -33.6032 -33.6030 -33.6028 -33.6027
   -33.6009 -33.6009 -33.5783 -33.5783 -33.5781 -33.5780 -33.5779 -33.5779
   -33.5778 -33.5778 -33.5777 -33.5777 -33.5776 -33.5775 -33.5774 -33.5774
   -33.5773 -33.5773 -33.5772 -33.5772 -33.5771 -33.5771 -33.5770 -33.5770
   -33.5769 -33.5769 -33.5768 -33.5768 -33.5768 -33.5767 -33.5767 -33.5766
   -33.5766 -33.5765 -33.5765 -33.5765 -33.5765 -33.5764 -33.5764 -33.5763
   -33.5763 -33.5763 -33.5762 -33.5762 -33.5761 -33.5761 -33.5760 -33.5760
   -33.5760 -33.5759 -33.5758 -33.5758 -33.5758 -33.5757 -33.5757 -33.5757
   -33.5756 -33.5756 -33.5755 -33.5754 -33.5753 -33.5753 -33.5752 -33.5752
   -33.5751 -33.5750 -33.5750 -33.5749 -33.5748 -33.5747 -33.5746 -33.5745
   -33.5732 -33.5727 -33.5638 -33.5634 -33.5632 -33.5632 -33.5628 -33.5626
   -33.5624 -33.5622 -33.5621 -33.5619 -33.5619 -33.5618 -33.5618 -33.5617
   -33.5616 -33.5615 -33.5614 -33.5613 -33.5611 -33.5610 -33.5610 -33.5608
   -33.5604 -33.5602 -33.5601 -33.5599 -33.5597 -33.5595 -33.5595 -33.5594
   -33.5594 -33.5593 -33.5591 -33.5589 -33.5588 -33.5578 -24.3119 -24.3118
   -24.3115 -24.3113 -24.3005 -24.2999 -24.2746 -24.2741 -24.2590 -24.2590
   -24.2586 -24.2585 -24.2129 -24.2127 -24.2015 -24.2015 -24.2015 -24.2010
   -24.1786 -24.1786 -24.1786 -24.1781 -24.1757 -24.1753 -24.1704 -24.1702
   -24.1702 -24.1702 -24.1702 -24.1702 -24.1699 -24.1699 -24.1696 -24.1696
   -24.1674 -24.1671 -24.1670 -24.1669 -24.1421 -24.1421 -24.1419 -24.1416
   -24.1376 -24.1376 -24.1372 -24.1371 -24.1173 -24.1169 -24.0963 -24.0963
   -24.0959 -24.0958 -24.0812 -24.0807  -0.7660  -0.4974  -0.3722  -0.3710
    -0.1163  -0.1147   0.3107   0.5389   0.5396   0.5876   0.5888   0.7304
     0.7752   0.7764   0.9093   0.9102   1.0311   1.0760   1.0772   1.0902
     1.0913   1.1564   1.1867   1.1879   1.2472   1.3120   1.3130   1.3275
     1.3393   1.3416   1.3426   1.4366   1.4476   1.4484   1.4731   1.5098
     7.4829   7.5261   7.5269   7.7591   7.8278   7.8288   7.9406   7.9414
     8.0251   8.3125   8.3977   8.4167   8.4177   8.4605   8.5988   8.6210
     8.6219   8.6383   8.6593   8.6601   8.7110   8.7114   8.8382   8.8392
     8.8519   9.0275   9.1686   9.1696   9.2765   9.2778   9.4913   9.4923
     9.5532   9.6282   9.6296   9.6986   9.7283   9.9147   9.9154  10.0058
    10.0059  10.0387  10.0907  10.0913  10.1389  10.1405  10.3263  10.3520
    10.3529  10.4688  10.4692  10.5887  10.6069  10.6111  10.7411  10.8466
    10.8653  10.8660  10.8875  10.8920  10.9511  10.9521  10.9635  10.9644
    11.0305  11.0359  11.0361  11.1328  11.4690  11.4699  11.4748  11.5091
    11.5104  11.6078  11.6093  11.6273  11.6558  11.6570  11.6937  11.6945
    11.7582  11.8828  11.9136  11.9145  11.9996  12.0222  12.0266  12.1986
    12.2111  12.2119  12.2301  12.2359  12.2364  12.2616  12.2621  12.2819
    12.2825  12.2968  12.4096  12.4105  12.4530  12.4543  12.6520  12.6541
    12.8112  12.9374  12.9386  13.0071  13.2938  13.2944  13.2974  13.2985
    13.3073  13.3081  13.3189  13.3197  13.3757  13.3762  13.4356  13.4964
    13.5329  13.5339  13.5966  13.7281  13.7757  13.8427

          k = 0.2500-0.1443 0.1957 ( 84743 PWs)   bands (ev):

   -59.9629 -59.9629 -59.9581 -59.9580 -59.9562 -59.9562 -59.9562 -59.9560
   -59.9540 -59.9537 -59.9537 -59.9534 -59.9531 -59.9528 -59.9513 -59.9513
   -59.9511 -59.9509 -33.6088 -33.6085 -33.6084 -33.6084 -33.6084 -33.6083
   -33.6082 -33.6082 -33.6082 -33.6080 -33.6080 -33.6079 -33.6079 -33.6078
   -33.6077 -33.6077 -33.6077 -33.6077 -33.6076 -33.6076 -33.6075 -33.6075
   -33.6074 -33.6074 -33.6073 -33.6073 -33.6072 -33.6071 -33.6070 -33.6070
   -33.6070 -33.6069 -33.6067 -33.6066 -33.6062 -33.6060 -33.6060 -33.6059
   -33.6059 -33.6054 -33.6054 -33.6053 -33.6052 -33.6052 -33.6051 -33.6048
   -33.6048 -33.6048 -33.6046 -33.6045 -33.6045 -33.6044 -33.6043 -33.6043
   -33.6042 -33.6042 -33.6042 -33.6040 -33.6039 -33.6039 -33.6039 -33.6038
   -33.6038 -33.6037 -33.6037 -33.6035 -33.6034 -33.6034 -33.6031 -33.6029
   -33.6010 -33.6009 -33.5785 -33.5785 -33.5780 -33.5778 -33.5778 -33.5777
   -33.5777 -33.5776 -33.5776 -33.5775 -33.5775 -33.5774 -33.5774 -33.5773
   -33.5773 -33.5772 -33.5772 -33.5771 -33.5771 -33.5770 -33.5770 -33.5770
   -33.5770 -33.5769 -33.5769 -33.5768 -33.5768 -33.5767 -33.5767 -33.5767
   -33.5767 -33.5766 -33.5766 -33.5765 -33.5765 -33.5764 -33.5764 -33.5764
   -33.5763 -33.5763 -33.5763 -33.5763 -33.5762 -33.5762 -33.5761 -33.5761
   -33.5760 -33.5760 -33.5759 -33.5758 -33.5758 -33.5757 -33.5757 -33.5756
   -33.5756 -33.5755 -33.5755 -33.5754 -33.5754 -33.5753 -33.5753 -33.5752
   -33.5751 -33.5750 -33.5748 -33.5748 -33.5747 -33.5746 -33.5746 -33.5744
   -33.5732 -33.5727 -33.5641 -33.5634 -33.5631 -33.5628 -33.5627 -33.5625
   -33.5623 -33.5623 -33.5622 -33.5621 -33.5620 -33.5619 -33.5618 -33.5617
   -33.5617 -33.5615 -33.5614 -33.5613 -33.5612 -33.5609 -33.5608 -33.5605
   -33.5604 -33.5601 -33.5599 -33.5599 -33.5599 -33.5597 -33.5596 -33.5594
   -33.5593 -33.5593 -33.5591 -33.5589 -33.5588 -33.5578 -24.3045 -24.3040
   -24.2822 -24.2822 -24.2820 -24.2816 -24.2777 -24.2777 -24.2774 -24.2770
   -24.2305 -24.2305 -24.2303 -24.2299 -24.2195 -24.2192 -24.2010 -24.2010
   -24.2006 -24.2005 -24.1967 -24.1964 -24.1964 -24.1959 -24.1883 -24.1883
   -24.1881 -24.1880 -24.1768 -24.1768 -24.1766 -24.1766 -24.1738 -24.1735
   -24.1654 -24.1654 -24.1651 -24.1651 -24.1289 -24.1289 -24.1285 -24.1284
   -24.1241 -24.1237 -24.1138 -24.1137 -24.1134 -24.1132 -24.0986 -24.0982
   -24.0861 -24.0857 -24.0729 -24.0725  -0.9762  -0.7035  -0.1895   0.0582
     0.1487   0.1499   0.1887   0.3758   0.3772   0.6325   0.6439   0.6910
     0.6921   0.8382   0.8388   0.8640   0.8652   0.8712   0.9890   1.0166
     1.1331   1.1338   1.1417   1.1426   1.2337   1.3380   1.3384   1.3387
     1.3403   1.3868   1.4024   1.4036   1.4905   1.4915   1.5515   1.5525
     7.2234   7.6289   7.9402   7.9999   8.0003   8.1078   8.2205   8.2213
     8.2240   8.3037   8.3041   8.3601   8.3610   8.3618   8.3627   8.5264
     8.5271   8.6998   8.7011   8.7190   8.8386   8.9017   8.9375   8.9377
     8.9382   8.9386   9.0033   9.0037   9.1788   9.1803   9.3928   9.3936
     9.4809   9.5331   9.5337   9.6197   9.6860   9.6865   9.7382   9.8750
     9.8765  10.0501  10.0509  10.1028  10.1034  10.1182  10.1191  10.1442
    10.1446  10.1495  10.2070  10.2783  10.2795  10.6036  10.7467  10.7532
    10.7544  10.8621  10.8638  10.8783  10.8796  11.0294  11.0296  11.0723
    11.0885  11.0894  11.1891  11.3185  11.3202  11.3922  11.4270  11.6148
    11.6557  11.6559  11.7369  11.8255  11.8387  11.8552  11.8959  11.8970
    11.9494  11.9722  11.9727  11.9821  11.9826  12.0715  12.1932  12.1936
    12.1989  12.2442  12.2454  12.2669  12.2674  12.3500  12.3509  12.3708
    12.3712  12.4694  12.5727  12.5956  12.5962  12.6240  12.6626  12.7315
    12.7377  12.8429  12.9311  12.9650  12.9826  13.0363  13.1084  13.1328
    13.1335  13.1467  13.1472  13.2229  13.2233  13.2253  13.3202  13.3204
    13.6693  13.6694  13.9153  13.9154  13.9285  14.2151

          k =-0.2500-0.4330 0.1957 ( 84744 PWs)   bands (ev):

   -59.9616 -59.9615 -59.9592 -59.9590 -59.9590 -59.9587 -59.9545 -59.9541
   -59.9541 -59.9538 -59.9525 -59.9523 -59.9523 -59.9523 -59.9522 -59.9517
   -59.9516 -59.9513 -33.6086 -33.6085 -33.6083 -33.6082 -33.6082 -33.6081
   -33.6080 -33.6080 -33.6079 -33.6079 -33.6079 -33.6079 -33.6078 -33.6078
   -33.6077 -33.6076 -33.6076 -33.6075 -33.6075 -33.6075 -33.6074 -33.6074
   -33.6073 -33.6073 -33.6072 -33.6072 -33.6071 -33.6071 -33.6069 -33.6069
   -33.6068 -33.6067 -33.6067 -33.6066 -33.6066 -33.6065 -33.6064 -33.6064
   -33.6063 -33.6062 -33.6060 -33.6059 -33.6059 -33.6058 -33.6056 -33.6055
   -33.6050 -33.6049 -33.6048 -33.6047 -33.6045 -33.6045 -33.6044 -33.6043
   -33.6042 -33.6040 -33.6039 -33.6039 -33.6038 -33.6037 -33.6037 -33.6037
   -33.6036 -33.6035 -33.6033 -33.6033 -33.6032 -33.6030 -33.6028 -33.6027
   -33.6009 -33.6009 -33.5783 -33.5783 -33.5781 -33.5780 -33.5780 -33.5778
   -33.5778 -33.5778 -33.5777 -33.5776 -33.5775 -33.5775 -33.5774 -33.5774
   -33.5773 -33.5773 -33.5772 -33.5772 -33.5771 -33.5771 -33.5770 -33.5770
   -33.5769 -33.5769 -33.5768 -33.5768 -33.5768 -33.5767 -33.5767 -33.5766
   -33.5766 -33.5765 -33.5765 -33.5765 -33.5764 -33.5764 -33.5764 -33.5763
   -33.5763 -33.5763 -33.5762 -33.5762 -33.5761 -33.5761 -33.5760 -33.5760
   -33.5759 -33.5759 -33.5759 -33.5758 -33.5758 -33.5757 -33.5757 -33.5757
   -33.5756 -33.5756 -33.5755 -33.5754 -33.5753 -33.5753 -33.5752 -33.5752
   -33.5751 -33.5750 -33.5750 -33.5749 -33.5748 -33.5747 -33.5746 -33.5745
   -33.5732 -33.5727 -33.5638 -33.5634 -33.5632 -33.5632 -33.5628 -33.5626
   -33.5624 -33.5622 -33.5621 -33.5619 -33.5619 -33.5618 -33.5618 -33.5617
   -33.5616 -33.5615 -33.5614 -33.5613 -33.5611 -33.5610 -33.5610 -33.5608
   -33.5604 -33.5602 -33.5601 -33.5599 -33.5597 -33.5595 -33.5595 -33.5594
   -33.5594 -33.5593 -33.5591 -33.5589 -33.5588 -33.5578 -24.3119 -24.3118
   -24.3115 -24.3113 -24.3005 -24.2999 -24.2746 -24.2741 -24.2590 -24.2590
   -24.2586 -24.2585 -24.2129 -24.2127 -24.2015 -24.2015 -24.2015 -24.2010
   -24.1786 -24.1786 -24.1786 -24.1781 -24.1757 -24.1753 -24.1704 -24.1702
   -24.1702 -24.1702 -24.1702 -24.1702 -24.1699 -24.1699 -24.1696 -24.1696
   -24.1674 -24.1671 -24.1670 -24.1669 -24.1421 -24.1421 -24.1419 -24.1416
   -24.1376 -24.1376 -24.1372 -24.1371 -24.1173 -24.1169 -24.0963 -24.0963
   -24.0959 -24.0958 -24.0812 -24.0807  -0.7660  -0.4975  -0.3722  -0.3710
    -0.1163  -0.1147   0.3107   0.5388   0.5397   0.5876   0.5888   0.7304
     0.7752   0.7764   0.9093   0.9102   1.0311   1.0760   1.0772   1.0902
     1.0913   1.1564   1.1867   1.1880   1.2472   1.3120   1.3130   1.3275
     1.3394   1.3416   1.3426   1.4366   1.4476   1.4484   1.4731   1.5098
     7.4829   7.5261   7.5269   7.7591   7.8278   7.8288   7.9406   7.9415
     8.0251   8.3126   8.3976   8.4167   8.4177   8.4605   8.5988   8.6210
     8.6218   8.6383   8.6594   8.6601   8.7109   8.7115   8.8382   8.8390
     8.8518   9.0275   9.1686   9.1696   9.2766   9.2777   9.4912   9.4924
     9.5533   9.6281   9.6295   9.6987   9.7281   9.9148   9.9154  10.0058
    10.0059  10.0384  10.0909  10.0914  10.1391  10.1405  10.3264  10.3522
    10.3527  10.4688  10.4691  10.5886  10.6072  10.6111  10.7409  10.8465
    10.8654  10.8658  10.8873  10.8920  10.9511  10.9522  10.9635  10.9645
    11.0307  11.0357  11.0361  11.1327  11.4691  11.4700  11.4751  11.5091
    11.5105  11.6077  11.6092  11.6272  11.6559  11.6569  11.6937  11.6944
    11.7583  11.8826  11.9136  11.9145  11.9996  12.0222  12.0266  12.1986
    12.2111  12.2120  12.2304  12.2359  12.2365  12.2617  12.2622  12.2818
    12.2825  12.2967  12.4097  12.4104  12.4529  12.4543  12.6520  12.6541
    12.8113  12.9372  12.9386  13.0068  13.2938  13.2943  13.2973  13.2986
    13.3071  13.3081  13.3189  13.3197  13.3757  13.3763  13.4356  13.4963
    13.5330  13.5339  13.5965  13.7284  13.7757  13.8426

          k =-0.2500 0.4330-0.1957 ( 84744 PWs)   bands (ev):

   -59.9615 -59.9615 -59.9594 -59.9590 -59.9590 -59.9586 -59.9546 -59.9541
   -59.9541 -59.9536 -59.9528 -59.9523 -59.9523 -59.9523 -59.9520 -59.9517
   -59.9516 -59.9513 -33.6086 -33.6085 -33.6083 -33.6082 -33.6082 -33.6081
   -33.6080 -33.6080 -33.6079 -33.6079 -33.6079 -33.6079 -33.6078 -33.6078
   -33.6077 -33.6076 -33.6076 -33.6075 -33.6075 -33.6074 -33.6074 -33.6074
   -33.6074 -33.6073 -33.6072 -33.6072 -33.6071 -33.6071 -33.6070 -33.6069
   -33.6068 -33.6067 -33.6067 -33.6067 -33.6065 -33.6065 -33.6064 -33.6064
   -33.6063 -33.6062 -33.6060 -33.6059 -33.6059 -33.6058 -33.6056 -33.6055
   -33.6051 -33.6048 -33.6048 -33.6047 -33.6045 -33.6044 -33.6044 -33.6043
   -33.6041 -33.6040 -33.6039 -33.6038 -33.6038 -33.6037 -33.6037 -33.6036
   -33.6036 -33.6035 -33.6033 -33.6033 -33.6032 -33.6030 -33.6028 -33.6027
   -33.6009 -33.6008 -33.5783 -33.5783 -33.5781 -33.5780 -33.5779 -33.5778
   -33.5778 -33.5778 -33.5777 -33.5777 -33.5776 -33.5775 -33.5774 -33.5774
   -33.5773 -33.5773 -33.5772 -33.5772 -33.5771 -33.5770 -33.5770 -33.5770
   -33.5769 -33.5769 -33.5768 -33.5768 -33.5767 -33.5767 -33.5767 -33.5766
   -33.5766 -33.5765 -33.5765 -33.5765 -33.5764 -33.5764 -33.5764 -33.5763
   -33.5763 -33.5763 -33.5762 -33.5761 -33.5761 -33.5761 -33.5761 -33.5760
   -33.5760 -33.5759 -33.5758 -33.5758 -33.5758 -33.5757 -33.5757 -33.5756
   -33.5756 -33.5755 -33.5755 -33.5754 -33.5753 -33.5753 -33.5752 -33.5752
   -33.5751 -33.5750 -33.5750 -33.5749 -33.5748 -33.5747 -33.5746 -33.5745
   -33.5732 -33.5727 -33.5638 -33.5633 -33.5632 -33.5632 -33.5628 -33.5626
   -33.5624 -33.5623 -33.5620 -33.5620 -33.5620 -33.5618 -33.5618 -33.5617
   -33.5616 -33.5616 -33.5613 -33.5613 -33.5611 -33.5610 -33.5610 -33.5608
   -33.5604 -33.5602 -33.5601 -33.5599 -33.5596 -33.5596 -33.5595 -33.5594
   -33.5594 -33.5593 -33.5591 -33.5589 -33.5588 -33.5578 -24.3118 -24.3118
   -24.3115 -24.3112 -24.3005 -24.3000 -24.2746 -24.2740 -24.2590 -24.2590
   -24.2589 -24.2583 -24.2129 -24.2127 -24.2015 -24.2015 -24.2014 -24.2011
   -24.1786 -24.1786 -24.1786 -24.1782 -24.1757 -24.1754 -24.1703 -24.1702
   -24.1702 -24.1702 -24.1702 -24.1702 -24.1701 -24.1699 -24.1696 -24.1696
   -24.1674 -24.1671 -24.1669 -24.1668 -24.1421 -24.1421 -24.1417 -24.1416
   -24.1376 -24.1376 -24.1374 -24.1369 -24.1173 -24.1169 -24.0963 -24.0963
   -24.0960 -24.0957 -24.0812 -24.0808  -0.7660  -0.4975  -0.3722  -0.3709
    -0.1163  -0.1147   0.3107   0.5388   0.5397   0.5876   0.5890   0.7304
     0.7752   0.7765   0.9093   0.9102   1.0309   1.0761   1.0768   1.0902
     1.0910   1.1563   1.1868   1.1877   1.2475   1.3120   1.3127   1.3276
     1.3394   1.3416   1.3428   1.4364   1.4476   1.4488   1.4733   1.5094
     7.4829   7.5264   7.5269   7.7589   7.8281   7.8288   7.9407   7.9414
     8.0248   8.3126   8.3978   8.4167   8.4176   8.4604   8.5992   8.6209
     8.6217   8.6384   8.6592   8.6599   8.7108   8.7112   8.8382   8.8392
     8.8515   9.0272   9.1688   9.1696   9.2766   9.2777   9.4912   9.4918
     9.5538   9.6284   9.6301   9.6983   9.7284   9.9146   9.9160  10.0057
    10.0061  10.0390  10.0907  10.0915  10.1393  10.1399  10.3266  10.3519
    10.3528  10.4684  10.4696  10.5890  10.6071  10.6112  10.7412  10.8464
    10.8653  10.8662  10.8875  10.8917  10.9511  10.9517  10.9634  10.9645
    11.0302  11.0353  11.0370  11.1329  11.4693  11.4696  11.4749  11.5088
    11.5107  11.6081  11.6088  11.6266  11.6563  11.6571  11.6933  11.6947
    11.7590  11.8831  11.9139  11.9145  11.9998  12.0219  12.0269  12.1978
    12.2111  12.2119  12.2301  12.2359  12.2364  12.2609  12.2623  12.2820
    12.2826  12.2958  12.4094  12.4104  12.4534  12.4542  12.6522  12.6536
    12.8117  12.9377  12.9384  13.0071  13.2937  13.2943  13.2978  13.2988
    13.3072  13.3080  13.3187  13.3195  13.3754  13.3762  13.4355  13.4962
    13.5329  13.5340  13.5966  13.7282  13.7755  13.8431

          k = 0.2500-0.4330-0.1957 ( 84744 PWs)   bands (ev):

   -59.9615 -59.9615 -59.9594 -59.9590 -59.9590 -59.9586 -59.9546 -59.9541
   -59.9541 -59.9536 -59.9528 -59.9523 -59.9523 -59.9523 -59.9520 -59.9517
   -59.9516 -59.9513 -33.6086 -33.6085 -33.6083 -33.6082 -33.6082 -33.6081
   -33.6080 -33.6080 -33.6079 -33.6079 -33.6079 -33.6079 -33.6078 -33.6078
   -33.6077 -33.6076 -33.6076 -33.6075 -33.6075 -33.6074 -33.6074 -33.6074
   -33.6074 -33.6073 -33.6072 -33.6072 -33.6071 -33.6071 -33.6070 -33.6069
   -33.6068 -33.6067 -33.6067 -33.6067 -33.6065 -33.6065 -33.6064 -33.6064
   -33.6063 -33.6062 -33.6060 -33.6059 -33.6059 -33.6058 -33.6056 -33.6055
   -33.6051 -33.6048 -33.6048 -33.6047 -33.6045 -33.6044 -33.6044 -33.6043
   -33.6041 -33.6040 -33.6039 -33.6038 -33.6038 -33.6037 -33.6037 -33.6036
   -33.6036 -33.6035 -33.6033 -33.6033 -33.6032 -33.6030 -33.6028 -33.6027
   -33.6009 -33.6008 -33.5783 -33.5783 -33.5781 -33.5780 -33.5779 -33.5778
   -33.5778 -33.5778 -33.5777 -33.5776 -33.5775 -33.5775 -33.5774 -33.5774
   -33.5773 -33.5773 -33.5772 -33.5772 -33.5771 -33.5770 -33.5770 -33.5770
   -33.5769 -33.5769 -33.5769 -33.5768 -33.5767 -33.5767 -33.5767 -33.5766
   -33.5766 -33.5765 -33.5765 -33.5765 -33.5764 -33.5764 -33.5764 -33.5764
   -33.5763 -33.5762 -33.5762 -33.5762 -33.5761 -33.5761 -33.5760 -33.5760
   -33.5760 -33.5759 -33.5758 -33.5758 -33.5758 -33.5757 -33.5757 -33.5756
   -33.5756 -33.5756 -33.5755 -33.5754 -33.5753 -33.5753 -33.5752 -33.5752
   -33.5751 -33.5750 -33.5750 -33.5749 -33.5748 -33.5747 -33.5746 -33.5745
   -33.5732 -33.5727 -33.5638 -33.5633 -33.5632 -33.5632 -33.5628 -33.5626
   -33.5624 -33.5623 -33.5620 -33.5620 -33.5620 -33.5618 -33.5618 -33.5617
   -33.5616 -33.5616 -33.5613 -33.5613 -33.5611 -33.5611 -33.5610 -33.5608
   -33.5604 -33.5602 -33.5601 -33.5599 -33.5596 -33.5596 -33.5595 -33.5594
   -33.5594 -33.5593 -33.5591 -33.5589 -33.5588 -33.5578 -24.3118 -24.3118
   -24.3115 -24.3112 -24.3005 -24.3000 -24.2746 -24.2740 -24.2590 -24.2590
   -24.2589 -24.2583 -24.2129 -24.2127 -24.2015 -24.2015 -24.2014 -24.2011
   -24.1786 -24.1786 -24.1786 -24.1782 -24.1757 -24.1754 -24.1703 -24.1702
   -24.1702 -24.1702 -24.1702 -24.1702 -24.1701 -24.1699 -24.1696 -24.1696
   -24.1674 -24.1671 -24.1669 -24.1668 -24.1421 -24.1421 -24.1417 -24.1416
   -24.1376 -24.1376 -24.1374 -24.1369 -24.1173 -24.1169 -24.0963 -24.0963
   -24.0960 -24.0957 -24.0812 -24.0808  -0.7660  -0.4975  -0.3722  -0.3710
    -0.1163  -0.1147   0.3107   0.5388   0.5396   0.5876   0.5890   0.7304
     0.7752   0.7765   0.9093   0.9102   1.0309   1.0761   1.0768   1.0902
     1.0911   1.1563   1.1868   1.1877   1.2475   1.3120   1.3127   1.3276
     1.3394   1.3416   1.3428   1.4364   1.4476   1.4488   1.4733   1.5094
     7.4828   7.5264   7.5269   7.7589   7.8281   7.8288   7.9407   7.9414
     8.0248   8.3126   8.3978   8.4168   8.4175   8.4605   8.5991   8.6210
     8.6217   8.6384   8.6593   8.6599   8.7107   8.7113   8.8382   8.8390
     8.8515   9.0273   9.1688   9.1697   9.2766   9.2777   9.4913   9.4916
     9.5539   9.6283   9.6300   9.6984   9.7282   9.9147   9.9161  10.0056
    10.0061  10.0388  10.0908  10.0916  10.1394  10.1399  10.3268  10.3519
    10.3529  10.4685  10.4693  10.5890  10.6074  10.6111  10.7410  10.8464
    10.8654  10.8659  10.8873  10.8917  10.9511  10.9518  10.9633  10.9647
    11.0303  11.0353  11.0369  11.1328  11.4693  11.4697  11.4751  11.5088
    11.5108  11.6080  11.6086  11.6264  11.6565  11.6570  11.6933  11.6946
    11.7591  11.8829  11.9136  11.9147  11.9999  12.0220  12.0269  12.1979
    12.2111  12.2120  12.2303  12.2360  12.2364  12.2610  12.2623  12.2819
    12.2826  12.2958  12.4094  12.4104  12.4533  12.4541  12.6523  12.6537
    12.8117  12.9375  12.9385  13.0069  13.2937  13.2942  13.2976  13.2989
    13.3074  13.3078  13.3187  13.3195  13.3754  13.3763  13.4356  13.4961
    13.5330  13.5340  13.5966  13.7285  13.7756  13.8430

          k = 0.5000-0.0000 0.1957 ( 84744 PWs)   bands (ev):

   -59.9616 -59.9615 -59.9592 -59.9590 -59.9590 -59.9587 -59.9545 -59.9541
   -59.9541 -59.9537 -59.9526 -59.9523 -59.9523 -59.9523 -59.9521 -59.9517
   -59.9516 -59.9513 -33.6086 -33.6085 -33.6083 -33.6082 -33.6082 -33.6081
   -33.6081 -33.6080 -33.6079 -33.6079 -33.6079 -33.6079 -33.6078 -33.6077
   -33.6077 -33.6076 -33.6076 -33.6075 -33.6074 -33.6074 -33.6074 -33.6074
   -33.6073 -33.6073 -33.6072 -33.6072 -33.6071 -33.6071 -33.6069 -33.6069
   -33.6068 -33.6067 -33.6067 -33.6067 -33.6065 -33.6065 -33.6064 -33.6064
   -33.6063 -33.6063 -33.6060 -33.6059 -33.6059 -33.6059 -33.6056 -33.6056
   -33.6050 -33.6048 -33.6048 -33.6047 -33.6045 -33.6044 -33.6044 -33.6043
   -33.6041 -33.6041 -33.6039 -33.6039 -33.6038 -33.6037 -33.6037 -33.6037
   -33.6036 -33.6034 -33.6033 -33.6033 -33.6032 -33.6030 -33.6029 -33.6027
   -33.6009 -33.6008 -33.5783 -33.5783 -33.5781 -33.5780 -33.5779 -33.5778
   -33.5778 -33.5778 -33.5777 -33.5776 -33.5776 -33.5775 -33.5774 -33.5774
   -33.5773 -33.5773 -33.5773 -33.5772 -33.5771 -33.5770 -33.5770 -33.5770
   -33.5769 -33.5769 -33.5768 -33.5768 -33.5768 -33.5767 -33.5767 -33.5766
   -33.5766 -33.5765 -33.5765 -33.5765 -33.5765 -33.5764 -33.5764 -33.5763
   -33.5763 -33.5762 -33.5762 -33.5761 -33.5761 -33.5761 -33.5760 -33.5760
   -33.5759 -33.5759 -33.5758 -33.5758 -33.5758 -33.5757 -33.5757 -33.5757
   -33.5756 -33.5755 -33.5755 -33.5754 -33.5753 -33.5753 -33.5752 -33.5752
   -33.5751 -33.5750 -33.5750 -33.5749 -33.5748 -33.5747 -33.5746 -33.5745
   -33.5732 -33.5727 -33.5638 -33.5633 -33.5632 -33.5632 -33.5627 -33.5627
   -33.5624 -33.5622 -33.5620 -33.5619 -33.5619 -33.5618 -33.5618 -33.5618
   -33.5616 -33.5615 -33.5614 -33.5613 -33.5611 -33.5610 -33.5610 -33.5607
   -33.5605 -33.5602 -33.5601 -33.5599 -33.5596 -33.5596 -33.5595 -33.5594
   -33.5594 -33.5593 -33.5590 -33.5589 -33.5588 -33.5578 -24.3118 -24.3118
   -24.3115 -24.3112 -24.3005 -24.3000 -24.2746 -24.2741 -24.2590 -24.2590
   -24.2587 -24.2584 -24.2129 -24.2127 -24.2015 -24.2015 -24.2014 -24.2010
   -24.1786 -24.1786 -24.1786 -24.1781 -24.1757 -24.1753 -24.1704 -24.1702
   -24.1702 -24.1702 -24.1702 -24.1702 -24.1700 -24.1699 -24.1696 -24.1696
   -24.1674 -24.1671 -24.1669 -24.1669 -24.1421 -24.1421 -24.1418 -24.1416
   -24.1376 -24.1376 -24.1373 -24.1370 -24.1173 -24.1169 -24.0963 -24.0963
   -24.0960 -24.0957 -24.0812 -24.0808  -0.7660  -0.4975  -0.3720  -0.3712
    -0.1161  -0.1149   0.3107   0.5392   0.5393   0.5878   0.5887   0.7304
     0.7753   0.7764   0.9095   0.9100   1.0310   1.0760   1.0771   1.0903
     1.0910   1.1563   1.1868   1.1878   1.2473   1.3120   1.3128   1.3276
     1.3394   1.3415   1.3428   1.4365   1.4476   1.4486   1.4732   1.5096
     7.4829   7.5262   7.5269   7.7590   7.8279   7.8288   7.9409   7.9412
     8.0249   8.3125   8.3978   8.4167   8.4176   8.4604   8.5990   8.6210
     8.6218   8.6383   8.6593   8.6600   8.7109   8.7113   8.8383   8.8392
     8.8517   9.0273   9.1688   9.1696   9.2766   9.2777   9.4912   9.4921
     9.5534   9.6285   9.6297   9.6983   9.7285   9.9147   9.9155  10.0058
    10.0060  10.0390  10.0906  10.0913  10.1390  10.1402  10.3264  10.3519
    10.3528  10.4686  10.4696  10.5889  10.6069  10.6111  10.7412  10.8465
    10.8652  10.8663  10.8876  10.8919  10.9511  10.9519  10.9636  10.9643
    11.0303  11.0357  11.0366  11.1329  11.4691  11.4696  11.4749  11.5091
    11.5103  11.6079  11.6092  11.6270  11.6558  11.6572  11.6937  11.6945
    11.7585  11.8831  11.9137  11.9146  11.9997  12.0220  12.0268  12.1982
    12.2112  12.2117  12.2300  12.2358  12.2363  12.2611  12.2622  12.2820
    12.2825  12.2963  12.4096  12.4104  12.4533  12.4542  12.6521  12.6537
    12.8114  12.9377  12.9384  13.0072  13.2937  13.2944  13.2977  13.2985
    13.3073  13.3082  13.3188  13.3196  13.3755  13.3762  13.4355  13.4963
    13.5329  13.5339  13.5966  13.7280  13.7756  13.8429

          k =-0.5000 0.0000 0.1957 ( 84744 PWs)   bands (ev):

   -59.9616 -59.9615 -59.9592 -59.9590 -59.9590 -59.9587 -59.9545 -59.9541
   -59.9541 -59.9537 -59.9526 -59.9523 -59.9523 -59.9523 -59.9521 -59.9517
   -59.9516 -59.9513 -33.6086 -33.6085 -33.6083 -33.6082 -33.6082 -33.6081
   -33.6081 -33.6080 -33.6079 -33.6079 -33.6079 -33.6079 -33.6078 -33.6077
   -33.6077 -33.6076 -33.6075 -33.6075 -33.6074 -33.6074 -33.6074 -33.6074
   -33.6073 -33.6073 -33.6072 -33.6072 -33.6071 -33.6071 -33.6069 -33.6069
   -33.6068 -33.6067 -33.6067 -33.6067 -33.6065 -33.6065 -33.6064 -33.6064
   -33.6063 -33.6063 -33.6060 -33.6059 -33.6059 -33.6059 -33.6056 -33.6056
   -33.6050 -33.6048 -33.6048 -33.6047 -33.6045 -33.6044 -33.6044 -33.6043
   -33.6041 -33.6040 -33.6039 -33.6039 -33.6038 -33.6037 -33.6037 -33.6037
   -33.6036 -33.6034 -33.6033 -33.6033 -33.6032 -33.6030 -33.6029 -33.6027
   -33.6009 -33.6008 -33.5783 -33.5783 -33.5781 -33.5780 -33.5779 -33.5778
   -33.5778 -33.5778 -33.5777 -33.5776 -33.5776 -33.5775 -33.5774 -33.5774
   -33.5773 -33.5773 -33.5772 -33.5772 -33.5771 -33.5770 -33.5770 -33.5770
   -33.5769 -33.5769 -33.5768 -33.5768 -33.5768 -33.5767 -33.5767 -33.5766
   -33.5766 -33.5765 -33.5765 -33.5765 -33.5764 -33.5764 -33.5764 -33.5763
   -33.5763 -33.5763 -33.5762 -33.5762 -33.5761 -33.5761 -33.5760 -33.5760
   -33.5759 -33.5759 -33.5758 -33.5758 -33.5758 -33.5757 -33.5757 -33.5757
   -33.5756 -33.5755 -33.5755 -33.5754 -33.5753 -33.5753 -33.5753 -33.5752
   -33.5751 -33.5750 -33.5750 -33.5749 -33.5748 -33.5747 -33.5746 -33.5745
   -33.5732 -33.5727 -33.5638 -33.5633 -33.5632 -33.5632 -33.5627 -33.5627
   -33.5624 -33.5622 -33.5620 -33.5619 -33.5619 -33.5618 -33.5618 -33.5618
   -33.5616 -33.5615 -33.5614 -33.5613 -33.5611 -33.5611 -33.5610 -33.5607
   -33.5605 -33.5602 -33.5601 -33.5599 -33.5596 -33.5596 -33.5595 -33.5594
   -33.5594 -33.5593 -33.5590 -33.5589 -33.5588 -33.5578 -24.3118 -24.3118
   -24.3115 -24.3112 -24.3005 -24.3000 -24.2746 -24.2741 -24.2590 -24.2590
   -24.2587 -24.2584 -24.2129 -24.2127 -24.2015 -24.2015 -24.2014 -24.2010
   -24.1786 -24.1786 -24.1786 -24.1781 -24.1757 -24.1753 -24.1704 -24.1702
   -24.1702 -24.1702 -24.1702 -24.1702 -24.1700 -24.1699 -24.1696 -24.1696
   -24.1674 -24.1671 -24.1669 -24.1669 -24.1421 -24.1421 -24.1418 -24.1416
   -24.1376 -24.1376 -24.1373 -24.1370 -24.1173 -24.1169 -24.0963 -24.0963
   -24.0960 -24.0957 -24.0812 -24.0808  -0.7660  -0.4975  -0.3720  -0.3712
    -0.1161  -0.1149   0.3107   0.5392   0.5393   0.5878   0.5887   0.7304
     0.7753   0.7763   0.9095   0.9100   1.0310   1.0760   1.0770   1.0903
     1.0911   1.1563   1.1868   1.1879   1.2473   1.3120   1.3128   1.3276
     1.3394   1.3416   1.3427   1.4365   1.4476   1.4486   1.4732   1.5096
     7.4828   7.5262   7.5269   7.7590   7.8279   7.8288   7.9409   7.9413
     8.0250   8.3126   8.3977   8.4168   8.4175   8.4605   8.5990   8.6210
     8.6217   8.6383   8.6594   8.6599   8.7107   8.7115   8.8383   8.8388
     8.8516   9.0274   9.1687   9.1696   9.2766   9.2777   9.4911   9.4921
     9.5537   9.6283   9.6296   9.6986   9.7280   9.9149   9.9157  10.0057
    10.0060  10.0385  10.0909  10.0915  10.1393  10.1402  10.3267  10.3521
    10.3528  10.4688  10.4690  10.5887  10.6076  10.6110  10.7409  10.8465
    10.8653  10.8658  10.8872  10.8918  10.9510  10.9521  10.9635  10.9646
    11.0306  11.0356  11.0363  11.1327  11.4692  11.4697  11.4753  11.5091
    11.5106  11.6078  11.6088  11.6267  11.6560  11.6572  11.6938  11.6942
    11.7588  11.8826  11.9135  11.9147  11.9998  12.0222  12.0267  12.1983
    12.2112  12.2120  12.2304  12.2360  12.2365  12.2615  12.2622  12.2818
    12.2825  12.2962  12.4096  12.4103  12.4530  12.4541  12.6522  12.6539
    12.8115  12.9373  12.9386  13.0067  13.2938  13.2942  13.2974  13.2988
    13.3072  13.3079  13.3188  13.3197  13.3755  13.3764  13.4356  13.4962
    13.5330  13.5339  13.5965  13.7286  13.7756  13.8427

          k =-0.2500 0.1443 0.1957 ( 84743 PWs)   bands (ev):

   -59.9629 -59.9629 -59.9581 -59.9580 -59.9562 -59.9562 -59.9562 -59.9560
   -59.9540 -59.9537 -59.9537 -59.9534 -59.9531 -59.9528 -59.9513 -59.9513
   -59.9511 -59.9509 -33.6088 -33.6085 -33.6084 -33.6084 -33.6084 -33.6083
   -33.6082 -33.6082 -33.6082 -33.6080 -33.6080 -33.6079 -33.6078 -33.6078
   -33.6078 -33.6077 -33.6077 -33.6076 -33.6076 -33.6076 -33.6075 -33.6075
   -33.6074 -33.6074 -33.6073 -33.6073 -33.6072 -33.6071 -33.6070 -33.6070
   -33.6070 -33.6069 -33.6067 -33.6066 -33.6062 -33.6060 -33.6060 -33.6059
   -33.6059 -33.6054 -33.6054 -33.6053 -33.6052 -33.6052 -33.6051 -33.6048
   -33.6048 -33.6048 -33.6046 -33.6045 -33.6045 -33.6044 -33.6043 -33.6043
   -33.6042 -33.6042 -33.6042 -33.6040 -33.6039 -33.6039 -33.6038 -33.6038
   -33.6038 -33.6037 -33.6037 -33.6035 -33.6034 -33.6034 -33.6031 -33.6029
   -33.6010 -33.6009 -33.5785 -33.5785 -33.5780 -33.5779 -33.5778 -33.5777
   -33.5777 -33.5776 -33.5776 -33.5775 -33.5775 -33.5774 -33.5774 -33.5773
   -33.5773 -33.5772 -33.5772 -33.5771 -33.5771 -33.5771 -33.5770 -33.5770
   -33.5769 -33.5769 -33.5769 -33.5768 -33.5768 -33.5768 -33.5767 -33.5767
   -33.5766 -33.5766 -33.5766 -33.5765 -33.5764 -33.5764 -33.5764 -33.5763
   -33.5763 -33.5763 -33.5763 -33.5763 -33.5762 -33.5762 -33.5761 -33.5761
   -33.5760 -33.5760 -33.5759 -33.5759 -33.5758 -33.5757 -33.5757 -33.5756
   -33.5756 -33.5755 -33.5755 -33.5754 -33.5754 -33.5753 -33.5753 -33.5752
   -33.5751 -33.5750 -33.5748 -33.5748 -33.5747 -33.5746 -33.5746 -33.5744
   -33.5732 -33.5727 -33.5641 -33.5635 -33.5631 -33.5628 -33.5627 -33.5626
   -33.5623 -33.5623 -33.5622 -33.5621 -33.5620 -33.5619 -33.5618 -33.5617
   -33.5617 -33.5615 -33.5614 -33.5613 -33.5612 -33.5609 -33.5608 -33.5605
   -33.5604 -33.5601 -33.5599 -33.5599 -33.5599 -33.5597 -33.5596 -33.5594
   -33.5594 -33.5593 -33.5591 -33.5589 -33.5588 -33.5578 -24.3045 -24.3040
   -24.2822 -24.2822 -24.2820 -24.2816 -24.2777 -24.2777 -24.2774 -24.2770
   -24.2305 -24.2305 -24.2303 -24.2299 -24.2195 -24.2192 -24.2010 -24.2010
   -24.2006 -24.2005 -24.1967 -24.1964 -24.1964 -24.1959 -24.1883 -24.1883
   -24.1881 -24.1880 -24.1768 -24.1768 -24.1766 -24.1766 -24.1738 -24.1735
   -24.1654 -24.1654 -24.1651 -24.1651 -24.1289 -24.1289 -24.1285 -24.1284
   -24.1241 -24.1237 -24.1138 -24.1137 -24.1134 -24.1132 -24.0986 -24.0982
   -24.0861 -24.0857 -24.0729 -24.0725  -0.9762  -0.7035  -0.1895   0.0582
     0.1487   0.1499   0.1887   0.3758   0.3773   0.6325   0.6439   0.6910
     0.6922   0.8382   0.8388   0.8640   0.8652   0.8711   0.9890   1.0166
     1.1331   1.1338   1.1417   1.1426   1.2337   1.3380   1.3383   1.3387
     1.3405   1.3868   1.4024   1.4035   1.4905   1.4916   1.5515   1.5525
     7.2234   7.6288   7.9403   8.0001   8.0004   8.1080   8.2204   8.2211
     8.2240   8.3035   8.3040   8.3600   8.3610   8.3619   8.3630   8.5260
     8.5272   8.7002   8.7009   8.7190   8.8385   8.9011   8.9372   8.9375
     8.9387   8.9391   9.0037   9.0040   9.1791   9.1803   9.3918   9.3930
     9.4810   9.5331   9.5336   9.6194   9.6863   9.6868   9.7395   9.8749
     9.8755  10.0498  10.0511  10.1030  10.1039  10.1180  10.1199  10.1439
    10.1442  10.1495  10.2065  10.2790  10.2801  10.6036  10.7465  10.7532
    10.7539  10.8622  10.8627  10.8782  10.8798  11.0296  11.0300  11.0723
    11.0885  11.0901  11.1891  11.3186  11.3197  11.3922  11.4270  11.6144
    11.6551  11.6559  11.7369  11.8256  11.8387  11.8552  11.8965  11.8968
    11.9498  11.9726  11.9728  11.9818  11.9825  12.0715  12.1930  12.1939
    12.1992  12.2446  12.2449  12.2667  12.2676  12.3503  12.3508  12.3706
    12.3718  12.4694  12.5727  12.5954  12.5956  12.6242  12.6626  12.7313
    12.7376  12.8430  12.9307  12.9650  12.9826  13.0357  13.1087  13.1326
    13.1331  13.1469  13.1478  13.2228  13.2231  13.2249  13.3205  13.3209
    13.6693  13.6695  13.9152  13.9153  13.9288  14.2150

          k =-0.2500-0.1443-0.1957 ( 84743 PWs)   bands (ev):

   -59.9629 -59.9629 -59.9580 -59.9580 -59.9565 -59.9562 -59.9562 -59.9559
   -59.9538 -59.9537 -59.9537 -59.9536 -59.9531 -59.9528 -59.9513 -59.9513
   -59.9511 -59.9509 -33.6087 -33.6085 -33.6085 -33.6084 -33.6084 -33.6083
   -33.6083 -33.6082 -33.6081 -33.6080 -33.6080 -33.6079 -33.6079 -33.6078
   -33.6078 -33.6077 -33.6077 -33.6077 -33.6076 -33.6075 -33.6075 -33.6075
   -33.6074 -33.6074 -33.6074 -33.6073 -33.6072 -33.6071 -33.6070 -33.6070
   -33.6070 -33.6069 -33.6067 -33.6066 -33.6063 -33.6060 -33.6060 -33.6059
   -33.6059 -33.6054 -33.6054 -33.6053 -33.6053 -33.6052 -33.6051 -33.6048
   -33.6048 -33.6047 -33.6046 -33.6045 -33.6045 -33.6045 -33.6043 -33.6043
   -33.6043 -33.6042 -33.6042 -33.6041 -33.6039 -33.6039 -33.6038 -33.6038
   -33.6038 -33.6037 -33.6037 -33.6034 -33.6034 -33.6033 -33.6031 -33.6029
   -33.6010 -33.6009 -33.5785 -33.5785 -33.5780 -33.5778 -33.5778 -33.5777
   -33.5777 -33.5776 -33.5776 -33.5775 -33.5775 -33.5775 -33.5774 -33.5773
   -33.5773 -33.5772 -33.5772 -33.5771 -33.5771 -33.5771 -33.5770 -33.5770
   -33.5769 -33.5769 -33.5769 -33.5768 -33.5768 -33.5768 -33.5767 -33.5767
   -33.5767 -33.5766 -33.5765 -33.5765 -33.5764 -33.5764 -33.5764 -33.5764
   -33.5763 -33.5763 -33.5763 -33.5762 -33.5762 -33.5761 -33.5761 -33.5761
   -33.5760 -33.5760 -33.5759 -33.5759 -33.5758 -33.5757 -33.5757 -33.5756
   -33.5755 -33.5755 -33.5755 -33.5754 -33.5754 -33.5753 -33.5753 -33.5752
   -33.5750 -33.5750 -33.5748 -33.5748 -33.5747 -33.5746 -33.5746 -33.5744
   -33.5732 -33.5727 -33.5641 -33.5634 -33.5631 -33.5627 -33.5627 -33.5626
   -33.5623 -33.5623 -33.5622 -33.5621 -33.5620 -33.5619 -33.5618 -33.5618
   -33.5617 -33.5615 -33.5614 -33.5613 -33.5612 -33.5609 -33.5608 -33.5604
   -33.5604 -33.5602 -33.5599 -33.5599 -33.5598 -33.5597 -33.5596 -33.5594
   -33.5594 -33.5593 -33.5592 -33.5589 -33.5588 -33.5578 -24.3045 -24.3041
   -24.2822 -24.2822 -24.2819 -24.2816 -24.2777 -24.2777 -24.2774 -24.2770
   -24.2305 -24.2305 -24.2302 -24.2299 -24.2195 -24.2192 -24.2010 -24.2010
   -24.2007 -24.2004 -24.1967 -24.1964 -24.1964 -24.1960 -24.1883 -24.1883
   -24.1881 -24.1880 -24.1768 -24.1768 -24.1766 -24.1766 -24.1738 -24.1735
   -24.1654 -24.1654 -24.1651 -24.1651 -24.1289 -24.1289 -24.1286 -24.1283
   -24.1241 -24.1237 -24.1138 -24.1137 -24.1136 -24.1131 -24.0986 -24.0981
   -24.0861 -24.0858 -24.0729 -24.0724  -0.9762  -0.7035  -0.1894   0.0583
     0.1488   0.1497   0.1887   0.3759   0.3771   0.6325   0.6438   0.6910
     0.6920   0.8382   0.8389   0.8640   0.8650   0.8715   0.9889   1.0168
     1.1331   1.1340   1.1417   1.1427   1.2336   1.3380   1.3385   1.3387
     1.3404   1.3865   1.4024   1.4036   1.4905   1.4915   1.5516   1.5526
     7.2234   7.6286   7.9400   8.0001   8.0005   8.1080   8.2203   8.2213
     8.2241   8.3037   8.3041   8.3600   8.3606   8.3622   8.3629   8.5264
     8.5270   8.7000   8.7010   8.7191   8.8388   8.9013   8.9371   8.9377
     8.9387   8.9393   9.0038   9.0040   9.1791   9.1805   9.3917   9.3928
     9.4816   9.5329   9.5335   9.6195   9.6861   9.6862   9.7391   9.8750
     9.8756  10.0499  10.0511  10.1030  10.1035  10.1181  10.1192  10.1438
    10.1442  10.1498  10.2062  10.2790  10.2798  10.6036  10.7465  10.7533
    10.7534  10.8620  10.8624  10.8786  10.8797  11.0294  11.0299  11.0728
    11.0884  11.0892  11.1896  11.3188  11.3195  11.3924  11.4273  11.6141
    11.6557  11.6560  11.7375  11.8253  11.8394  11.8549  11.8966  11.8977
    11.9488  11.9719  11.9732  11.9822  11.9828  12.0712  12.1933  12.1942
    12.1981  12.2441  12.2447  12.2671  12.2680  12.3503  12.3508  12.3702
    12.3716  12.4692  12.5725  12.5955  12.5960  12.6243  12.6637  12.7309
    12.7388  12.8419  12.9308  12.9652  12.9822  13.0352  13.1084  13.1330
    13.1334  13.1473  13.1484  13.2226  13.2232  13.2246  13.3202  13.3210
    13.6694  13.6695  13.9153  13.9154  13.9284  14.2150

          k = 0.2500 0.1443-0.1957 ( 84743 PWs)   bands (ev):

   -59.9629 -59.9629 -59.9580 -59.9580 -59.9565 -59.9562 -59.9562 -59.9559
   -59.9538 -59.9537 -59.9537 -59.9536 -59.9531 -59.9528 -59.9513 -59.9513
   -59.9511 -59.9509 -33.6087 -33.6085 -33.6085 -33.6084 -33.6084 -33.6083
   -33.6082 -33.6082 -33.6081 -33.6080 -33.6080 -33.6079 -33.6079 -33.6078
   -33.6078 -33.6077 -33.6077 -33.6077 -33.6076 -33.6075 -33.6075 -33.6075
   -33.6074 -33.6074 -33.6074 -33.6073 -33.6072 -33.6071 -33.6070 -33.6070
   -33.6070 -33.6069 -33.6067 -33.6066 -33.6063 -33.6060 -33.6060 -33.6059
   -33.6059 -33.6055 -33.6054 -33.6053 -33.6053 -33.6052 -33.6051 -33.6048
   -33.6048 -33.6047 -33.6046 -33.6045 -33.6045 -33.6045 -33.6043 -33.6043
   -33.6043 -33.6042 -33.6042 -33.6041 -33.6039 -33.6039 -33.6038 -33.6038
   -33.6038 -33.6037 -33.6037 -33.6034 -33.6034 -33.6034 -33.6031 -33.6029
   -33.6010 -33.6009 -33.5785 -33.5785 -33.5780 -33.5779 -33.5778 -33.5778
   -33.5777 -33.5776 -33.5776 -33.5775 -33.5775 -33.5774 -33.5774 -33.5773
   -33.5773 -33.5772 -33.5772 -33.5771 -33.5771 -33.5771 -33.5770 -33.5770
   -33.5769 -33.5769 -33.5769 -33.5768 -33.5768 -33.5767 -33.5767 -33.5767
   -33.5766 -33.5766 -33.5766 -33.5765 -33.5765 -33.5764 -33.5764 -33.5764
   -33.5763 -33.5763 -33.5763 -33.5763 -33.5762 -33.5761 -33.5761 -33.5761
   -33.5760 -33.5760 -33.5759 -33.5758 -33.5758 -33.5757 -33.5757 -33.5756
   -33.5756 -33.5755 -33.5755 -33.5754 -33.5754 -33.5753 -33.5753 -33.5752
   -33.5750 -33.5750 -33.5748 -33.5748 -33.5747 -33.5746 -33.5746 -33.5744
   -33.5732 -33.5727 -33.5641 -33.5634 -33.5631 -33.5627 -33.5627 -33.5626
   -33.5623 -33.5623 -33.5622 -33.5621 -33.5620 -33.5619 -33.5618 -33.5618
   -33.5617 -33.5615 -33.5614 -33.5613 -33.5612 -33.5609 -33.5608 -33.5604
   -33.5604 -33.5602 -33.5599 -33.5599 -33.5598 -33.5597 -33.5596 -33.5594
   -33.5594 -33.5593 -33.5592 -33.5589 -33.5588 -33.5578 -24.3045 -24.3041
   -24.2822 -24.2822 -24.2819 -24.2816 -24.2777 -24.2777 -24.2774 -24.2770
   -24.2305 -24.2305 -24.2302 -24.2299 -24.2195 -24.2192 -24.2010 -24.2010
   -24.2007 -24.2004 -24.1967 -24.1964 -24.1964 -24.1960 -24.1883 -24.1883
   -24.1881 -24.1880 -24.1768 -24.1768 -24.1766 -24.1766 -24.1738 -24.1735
   -24.1654 -24.1654 -24.1651 -24.1651 -24.1289 -24.1289 -24.1286 -24.1283
   -24.1241 -24.1237 -24.1138 -24.1137 -24.1136 -24.1131 -24.0986 -24.0981
   -24.0861 -24.0858 -24.0729 -24.0724  -0.9762  -0.7035  -0.1894   0.0583
     0.1488   0.1497   0.1886   0.3758   0.3771   0.6325   0.6438   0.6910
     0.6920   0.8382   0.8389   0.8640   0.8651   0.8715   0.9889   1.0167
     1.1331   1.1340   1.1417   1.1426   1.2336   1.3380   1.3384   1.3387
     1.3406   1.3865   1.4024   1.4034   1.4905   1.4916   1.5516   1.5525
     7.2234   7.6286   7.9399   8.0000   8.0003   8.1080   8.2205   8.2212
     8.2241   8.3039   8.3043   8.3601   8.3609   8.3619   8.3631   8.5260
     8.5273   8.7003   8.7008   8.7190   8.8389   8.9014   8.9374   8.9377
     8.9383   8.9386   9.0027   9.0041   9.1787   9.1802   9.3929   9.3940
     9.4816   9.5329   9.5335   9.6195   9.6859   9.6865   9.7385   9.8751
     9.8756  10.0501  10.0510  10.1027  10.1034  10.1186  10.1188  10.1436
    10.1443  10.1499  10.2070  10.2786  10.2796  10.6033  10.7464  10.7536
    10.7545  10.8621  10.8627  10.8785  10.8790  11.0292  11.0296  11.0728
    11.0885  11.0889  11.1896  11.3189  11.3198  11.3924  11.4273  11.6134
    11.6552  11.6560  11.7376  11.8253  11.8394  11.8549  11.8970  11.8973
    11.9495  11.9726  11.9732  11.9820  11.9827  12.0717  12.1929  12.1938
    12.1985  12.2447  12.2453  12.2669  12.2678  12.3505  12.3513  12.3707
    12.3710  12.4693  12.5725  12.5950  12.5959  12.6235  12.6638  12.7308
    12.7388  12.8421  12.9302  12.9651  12.9823  13.0359  13.1079  13.1331
    13.1339  13.1474  13.1479  13.2228  13.2232  13.2250  13.3201  13.3206
    13.6693  13.6694  13.9152  13.9156  13.9288  14.2148

          k = 0.0000-0.2887 0.1957 ( 84743 PWs)   bands (ev):

   -59.9629 -59.9629 -59.9581 -59.9580 -59.9563 -59.9562 -59.9562 -59.9560
   -59.9539 -59.9537 -59.9537 -59.9535 -59.9531 -59.9528 -59.9513 -59.9513
   -59.9511 -59.9509 -33.6087 -33.6085 -33.6084 -33.6084 -33.6083 -33.6083
   -33.6082 -33.6082 -33.6082 -33.6081 -33.6080 -33.6080 -33.6079 -33.6078
   -33.6077 -33.6077 -33.6077 -33.6076 -33.6076 -33.6076 -33.6075 -33.6075
   -33.6074 -33.6074 -33.6074 -33.6073 -33.6072 -33.6071 -33.6070 -33.6070
   -33.6070 -33.6069 -33.6066 -33.6065 -33.6063 -33.6060 -33.6060 -33.6059
   -33.6059 -33.6055 -33.6054 -33.6053 -33.6052 -33.6052 -33.6050 -33.6048
   -33.6048 -33.6047 -33.6046 -33.6045 -33.6045 -33.6044 -33.6043 -33.6043
   -33.6043 -33.6042 -33.6042 -33.6040 -33.6039 -33.6039 -33.6039 -33.6038
   -33.6038 -33.6037 -33.6036 -33.6034 -33.6034 -33.6033 -33.6031 -33.6029
   -33.6010 -33.6009 -33.5785 -33.5785 -33.5780 -33.5779 -33.5778 -33.5777
   -33.5777 -33.5776 -33.5776 -33.5775 -33.5775 -33.5774 -33.5773 -33.5773
   -33.5773 -33.5773 -33.5772 -33.5771 -33.5771 -33.5771 -33.5770 -33.5770
   -33.5769 -33.5769 -33.5769 -33.5768 -33.5768 -33.5768 -33.5767 -33.5767
   -33.5767 -33.5766 -33.5765 -33.5765 -33.5765 -33.5764 -33.5764 -33.5764
   -33.5763 -33.5763 -33.5763 -33.5763 -33.5762 -33.5762 -33.5761 -33.5761
   -33.5760 -33.5760 -33.5759 -33.5759 -33.5757 -33.5757 -33.5757 -33.5756
   -33.5756 -33.5755 -33.5755 -33.5754 -33.5754 -33.5753 -33.5753 -33.5752
   -33.5751 -33.5750 -33.5748 -33.5748 -33.5747 -33.5746 -33.5745 -33.5745
   -33.5732 -33.5727 -33.5641 -33.5634 -33.5631 -33.5628 -33.5627 -33.5626
   -33.5623 -33.5623 -33.5622 -33.5621 -33.5620 -33.5619 -33.5618 -33.5618
   -33.5617 -33.5616 -33.5614 -33.5613 -33.5612 -33.5609 -33.5608 -33.5605
   -33.5604 -33.5602 -33.5599 -33.5599 -33.5598 -33.5597 -33.5597 -33.5594
   -33.5594 -33.5593 -33.5592 -33.5589 -33.5588 -33.5578 -24.3045 -24.3040
   -24.2822 -24.2822 -24.2820 -24.2816 -24.2777 -24.2777 -24.2774 -24.2770
   -24.2305 -24.2305 -24.2303 -24.2299 -24.2195 -24.2192 -24.2010 -24.2010
   -24.2006 -24.2004 -24.1967 -24.1964 -24.1964 -24.1959 -24.1883 -24.1883
   -24.1881 -24.1880 -24.1768 -24.1768 -24.1766 -24.1766 -24.1738 -24.1735
   -24.1654 -24.1654 -24.1651 -24.1651 -24.1289 -24.1289 -24.1286 -24.1283
   -24.1241 -24.1237 -24.1138 -24.1137 -24.1135 -24.1132 -24.0986 -24.0982
   -24.0861 -24.0857 -24.0729 -24.0725  -0.9762  -0.7035  -0.1895   0.0582
     0.1485   0.1501   0.1887   0.3757   0.3773   0.6325   0.6438   0.6909
     0.6922   0.8380   0.8391   0.8639   0.8652   0.8713   0.9890   1.0167
     1.1330   1.1340   1.1416   1.1427   1.2336   1.3380   1.3384   1.3387
     1.3404   1.3867   1.4024   1.4036   1.4905   1.4916   1.5515   1.5526
     7.2234   7.6287   7.9401   8.0000   8.0005   8.1080   8.2201   8.2214
     8.2241   8.3034   8.3042   8.3598   8.3610   8.3617   8.3632   8.5261
     8.5272   8.7001   8.7009   8.7191   8.8386   8.9012   8.9372   8.9376
     8.9386   8.9394   9.0037   9.0041   9.1791   9.1804   9.3917   9.3930
     9.4813   9.5329   9.5337   9.6195   9.6861   9.6865   9.7393   9.8746
     9.8758  10.0493  10.0517  10.1030  10.1038  10.1180  10.1196  10.1438
    10.1443  10.1497  10.2063  10.2787  10.2802  10.6036  10.7465  10.7533
    10.7536  10.8620  10.8626  10.8779  10.8802  11.0294  11.0301  11.0726
    11.0883  11.0899  11.1893  11.3186  11.3197  11.3923  11.4272  11.6142
    11.6553  11.6561  11.7372  11.8254  11.8391  11.8551  11.8965  11.8973
    11.9493  11.9724  11.9729  11.9817  11.9829  12.0713  12.1929  12.1943
    12.1987  12.2443  12.2448  12.2665  12.2682  12.3501  12.3509  12.3706
    12.3715  12.4693  12.5726  12.5954  12.5958  12.6243  12.6632  12.7311
    12.7383  12.8425  12.9307  12.9651  12.9824  13.0354  13.1086  13.1326
    13.1334  13.1470  13.1482  13.2226  13.2233  13.2247  13.3203  13.3210
    13.6693  13.6695  13.9152  13.9154  13.9286  14.2150

          k = 0.0000 0.2887 0.1957 ( 84743 PWs)   bands (ev):

   -59.9629 -59.9629 -59.9581 -59.9580 -59.9563 -59.9562 -59.9562 -59.9560
   -59.9539 -59.9537 -59.9537 -59.9535 -59.9531 -59.9528 -59.9513 -59.9513
   -59.9511 -59.9509 -33.6087 -33.6085 -33.6084 -33.6084 -33.6083 -33.6083
   -33.6082 -33.6082 -33.6082 -33.6081 -33.6080 -33.6080 -33.6079 -33.6078
   -33.6077 -33.6077 -33.6077 -33.6076 -33.6076 -33.6076 -33.6075 -33.6075
   -33.6074 -33.6074 -33.6074 -33.6073 -33.6072 -33.6071 -33.6070 -33.6070
   -33.6070 -33.6069 -33.6066 -33.6065 -33.6063 -33.6060 -33.6060 -33.6059
   -33.6059 -33.6055 -33.6054 -33.6053 -33.6052 -33.6052 -33.6050 -33.6048
   -33.6048 -33.6047 -33.6046 -33.6045 -33.6045 -33.6045 -33.6043 -33.6043
   -33.6043 -33.6042 -33.6042 -33.6040 -33.6039 -33.6039 -33.6039 -33.6039
   -33.6038 -33.6037 -33.6036 -33.6034 -33.6034 -33.6034 -33.6031 -33.6029
   -33.6010 -33.6009 -33.5785 -33.5785 -33.5780 -33.5779 -33.5778 -33.5777
   -33.5777 -33.5776 -33.5776 -33.5776 -33.5775 -33.5774 -33.5773 -33.5773
   -33.5773 -33.5773 -33.5772 -33.5771 -33.5771 -33.5771 -33.5770 -33.5770
   -33.5769 -33.5769 -33.5769 -33.5768 -33.5768 -33.5767 -33.5767 -33.5767
   -33.5767 -33.5766 -33.5765 -33.5765 -33.5765 -33.5764 -33.5764 -33.5764
   -33.5763 -33.5763 -33.5763 -33.5763 -33.5762 -33.5762 -33.5761 -33.5761
   -33.5760 -33.5759 -33.5759 -33.5759 -33.5758 -33.5757 -33.5757 -33.5756
   -33.5756 -33.5755 -33.5755 -33.5754 -33.5754 -33.5753 -33.5753 -33.5752
   -33.5751 -33.5750 -33.5748 -33.5748 -33.5747 -33.5746 -33.5745 -33.5745
   -33.5732 -33.5727 -33.5641 -33.5634 -33.5631 -33.5627 -33.5627 -33.5626
   -33.5623 -33.5623 -33.5622 -33.5621 -33.5620 -33.5619 -33.5618 -33.5618
   -33.5617 -33.5616 -33.5614 -33.5613 -33.5612 -33.5609 -33.5608 -33.5605
   -33.5604 -33.5602 -33.5599 -33.5599 -33.5598 -33.5597 -33.5597 -33.5594
   -33.5594 -33.5593 -33.5592 -33.5589 -33.5588 -33.5578 -24.3045 -24.3040
   -24.2822 -24.2822 -24.2820 -24.2816 -24.2777 -24.2777 -24.2774 -24.2770
   -24.2305 -24.2305 -24.2303 -24.2299 -24.2195 -24.2192 -24.2010 -24.2010
   -24.2006 -24.2004 -24.1967 -24.1964 -24.1964 -24.1959 -24.1883 -24.1883
   -24.1881 -24.1880 -24.1768 -24.1768 -24.1766 -24.1766 -24.1738 -24.1735
   -24.1654 -24.1654 -24.1651 -24.1651 -24.1289 -24.1289 -24.1286 -24.1283
   -24.1241 -24.1237 -24.1138 -24.1137 -24.1135 -24.1132 -24.0986 -24.0982
   -24.0861 -24.0857 -24.0729 -24.0725  -0.9762  -0.7035  -0.1895   0.0582
     0.1485   0.1501   0.1887   0.3757   0.3773   0.6325   0.6438   0.6909
     0.6922   0.8381   0.8391   0.8639   0.8652   0.8713   0.9890   1.0167
     1.1330   1.1340   1.1416   1.1427   1.2337   1.3380   1.3385   1.3387
     1.3404   1.3866   1.4024   1.4035   1.4905   1.4916   1.5515   1.5525
     7.2234   7.6288   7.9400   7.9998   8.0005   8.1079   8.2202   8.2215
     8.2240   8.3038   8.3043   8.3600   8.3610   8.3616   8.3632   8.5261
     8.5272   8.7000   8.7010   8.7190   8.8387   8.9016   8.9374   8.9378
     8.9382   8.9387   9.0030   9.0039   9.1787   9.1802   9.3928   9.3939
     9.4813   9.5328   9.5338   9.6196   9.6857   9.6867   9.7383   9.8750
     9.8761  10.0498  10.0512  10.1027  10.1034  10.1183  10.1190  10.1437
    10.1446  10.1498  10.2070  10.2779  10.2801  10.6035  10.7466  10.7530
    10.7549  10.8619  10.8634  10.8786  10.8791  11.0292  11.0296  11.0726
    11.0884  11.0893  11.1893  11.3186  11.3201  11.3923  11.4272  11.6141
    11.6553  11.6560  11.7372  11.8254  11.8390  11.8551  11.8964  11.8972
    11.9494  11.9722  11.9732  11.9818  11.9828  12.0716  12.1930  12.1937
    12.1988  12.2442  12.2456  12.2667  12.2678  12.3500  12.3514  12.3709
    12.3710  12.4694  12.5726  12.5955  12.5958  12.6237  12.6632  12.7311
    12.7383  12.8425  12.9307  12.9651  12.9825  13.0361  13.1082  13.1328
    13.1338  13.1469  13.1477  13.2228  13.2233  13.2252  13.3201  13.3206
    13.6693  13.6694  13.9153  13.9155  13.9286  14.2150

     highest occupied level (ev):    14.2151

!    total energy              =  -11463.72006579 Ry
     estimated scf accuracy    <          6.8E-11 Ry

     The total energy is the sum of the following terms:
     one-electron contribution =   -5078.29072269 Ry
     hartree contribution      =    2842.06149186 Ry
     xc contribution           =   -2342.61545255 Ry
     ewald contribution        =   -6882.86706229 Ry
     Dispersion Correction     =      -2.00832012 Ry

     convergence has been achieved in  24 iterations

     Forces acting on atoms (cartesian axes, Ry/au):

     atom    1 type  1   force =    -0.00001382   -0.00000013    0.00004759
     atom    2 type  1   force =    -0.00000025    0.00000808   -0.00000656
     atom    3 type  1   force =    -0.00000668    0.00000331   -0.00001168
     atom    4 type  1   force =    -0.00000692   -0.00000128   -0.00000468
     atom    5 type  1   force =     0.00000636    0.00000058   -0.00001351
     atom    6 type  1   force =     0.00000095   -0.00000025    0.00000403
     atom    7 type  1   force =    -0.00000805   -0.00000363   -0.00000216
     atom    8 type  1   force =     0.00000534    0.00000009    0.00000849
     atom    9 type  1   force =    -0.00000144   -0.00000763   -0.00001620
     atom   10 type  1   force =    -0.00210542    0.00106331   -0.00220930
     atom   11 type  1   force =    -0.00001838   -0.00001134   -0.00004411
     atom   12 type  1   force =     0.00006496    0.00018958   -0.00064930
     atom   13 type  1   force =    -0.00026357   -0.00126235   -0.00143886
     atom   14 type  1   force =    -0.00006932   -0.00009377   -0.00009601
     atom   15 type  1   force =     0.00002534    0.00003933   -0.00004105
     atom   16 type  1   force =    -0.00000429    0.00000838   -0.00004193
     atom   17 type  1   force =    -0.00002376    0.00000343   -0.00004623
     atom   18 type  1   force =     0.00009324    0.00005515   -0.00006875
     atom   19 type  2   force =     0.00286175    0.00001055    0.00574941
     atom   20 type  2   force =    -0.00019573   -0.00000268    0.00103286
     atom   21 type  2   force =    -0.00026717   -0.00001494    0.00108798
     atom   22 type  2   force =    -0.00004874    0.00015106    0.00107972
     atom   23 type  2   force =    -0.00003028   -0.00008343    0.00104051
     atom   24 type  2   force =     0.00000516   -0.00000016    0.00095617
     atom   25 type  2   force =    -0.00001473    0.00007924    0.00105236
     atom   26 type  2   force =     0.00000469    0.00000007    0.00095609
     atom   27 type  2   force =    -0.00006379   -0.00012987    0.00106831
     atom   28 type  2   force =     0.00006073   -0.00002561   -0.00098849
     atom   29 type  2   force =    -0.00000127    0.00000387   -0.00095801
     atom   30 type  2   force =    -0.00010761   -0.00007111   -0.00112042
     atom   31 type  2   force =     0.00001611    0.00009700   -0.00105432
     atom   32 type  2   force =     0.00000580   -0.00000018   -0.00094552
     atom   33 type  2   force =    -0.00000590    0.00000648   -0.00095401
     atom   34 type  2   force =    -0.00000439   -0.00000174   -0.00096024
     atom   35 type  2   force =     0.00000170   -0.00000180   -0.00095541
     atom   36 type  2   force =     0.00000586   -0.00000672   -0.00094957
     atom   37 type  2   force =     0.00000148   -0.00000039    0.00089412
     atom   38 type  2   force =     0.00000335    0.00000031    0.00089662
     atom   39 type  2   force =    -0.00000018   -0.00000002    0.00089486
     atom   40 type  2   force =     0.00000046    0.00000078    0.00089454
     atom   41 type  2   force =    -0.00000055   -0.00000166    0.00089971
     atom   42 type  2   force =     0.00000208   -0.00000030    0.00089721
     atom   43 type  2   force =     0.00000095   -0.00000127    0.00089635
     atom   44 type  2   force =     0.00000104    0.00000134    0.00089651
     atom   45 type  2   force =     0.00000207    0.00000166    0.00089821
     atom   46 type  2   force =     0.00006162   -0.00000009   -0.00136262
     atom   47 type  2   force =    -0.00007020   -0.00006617   -0.00094747
     atom   48 type  2   force =     0.00001872   -0.00001628   -0.00087844
     atom   49 type  2   force =     0.00008295   -0.00001293   -0.00092315
     atom   50 type  2   force =    -0.00003270   -0.00002330   -0.00090283
     atom   51 type  2   force =    -0.00000919   -0.00000005   -0.00086749
     atom   52 type  2   force =     0.00003887    0.00011263   -0.00095752
     atom   53 type  2   force =    -0.00000988    0.00000012   -0.00086762
     atom   54 type  2   force =     0.00001264    0.00000473   -0.00086820

     Total force =     0.009442     Total SCF correction =     0.000054


     Computing stress (Cartesian axis) and pressure

          total   stress  (Ry/bohr**3)                   (kbar)     P=       39.58
   0.00031979   0.00000027  -0.00000091           47.04        0.04       -0.13
   0.00000027   0.00031979  -0.00000000            0.04       47.04       -0.00
  -0.00000091  -0.00000000   0.00016762           -0.13       -0.00       24.66


     Writing all to output data dir ./WSe.save/ :
     XML data file, charge density, pseudopotentials, collected wavefunctions
 
     init_run     :      9.71s CPU     11.23s WALL (       1 calls)
     electrons    :    722.62s CPU    877.49s WALL (       1 calls)
     forces       :      7.28s CPU      7.92s WALL (       1 calls)
     force_london :      0.04s CPU      0.05s WALL (       1 calls)
     stress       :    108.01s CPU    115.14s WALL (       1 calls)
     stres_london :      0.04s CPU      0.04s WALL (       1 calls)

     Called by init_run:
     wfcinit      :      9.11s CPU     10.51s WALL (       1 calls)
     potinit      :      0.07s CPU      0.08s WALL (       1 calls)
     hinit0       :      0.18s CPU      0.22s WALL (       1 calls)

     Called by electrons:
     c_bands      :    681.62s CPU    829.91s WALL (      25 calls)
     sum_band     :     38.95s CPU     44.90s WALL (      25 calls)
     v_of_rho     :      1.35s CPU      1.55s WALL (      25 calls)
     mix_rho      :      0.52s CPU      0.60s WALL (      25 calls)
     energy_londo :      0.10s CPU      0.12s WALL (       1 calls)

     Called by c_bands:
     init_us_2    :      8.36s CPU      8.45s WALL (     159 calls)
     init_us_2:cp :      8.35s CPU      8.44s WALL (     159 calls)
     cegterg      :    650.47s CPU    787.03s WALL (      75 calls)

     Called by *egterg:
     cdiaghg      :     46.73s CPU    118.41s WALL (     452 calls)
     h_psi        :    373.11s CPU    409.33s WALL (     458 calls)
     g_psi        :      1.48s CPU      1.52s WALL (     380 calls)

     Called by h_psi:
     h_psi:calbec :     97.91s CPU    104.41s WALL (     458 calls)
     vloc_psi     :    185.80s CPU    214.36s WALL (     458 calls)
     add_vuspsi   :     85.83s CPU     86.34s WALL (     458 calls)

     General routines
     calbec       :    104.87s CPU    114.48s WALL (     473 calls)
     fft          :      0.97s CPU      1.14s WALL (     275 calls)
     ffts         :      0.08s CPU      0.12s WALL (      25 calls)
     fftw         :    200.78s CPU    231.59s WALL (  196336 calls)
 
     Parallel routines
     fft_scatt_xy :     20.52s CPU     23.15s WALL (  196636 calls)
     fft_scatt_yz :    112.74s CPU    132.51s WALL (  196636 calls)
 
     PWSCF        :  14m 9.80s CPU  17m 1.44s WALL

 
   This run was terminated on:  18: 1: 9   5Nov2024            

=------------------------------------------------------------------------------=
   JOB DONE.
=------------------------------------------------------------------------------=
