
     Program PWSCF v.7.3 starts on  5Nov2024 at 17:26:46 

     This program is part of the open-source Quantum ESPRESSO suite
     for quantum simulation of materials; please cite
         "P. Giannozzi et al., J. Phys.:Condens. Matter 21 395502 (2009);
         "P. Giannozzi et al., J. Phys.:Condens. Matter 29 465901 (2017);
         "P. Giannozzi et al., J. Chem. Phys. 152 154105 (2020);
          URL http://www.quantum-espresso.org", 
     in publications or presentations arising from this work. More details at
     http://www.quantum-espresso.org/quote

     Parallel version (MPI & OpenMP), running on     256 processor cores
     Number of MPI processes:               256
     Threads/MPI process:                     1

     MPI processes distributed on     1 nodes
     484033 MiB available memory on the printing compute node when the environment starts
 
     Waiting for input...
     Reading input from standard input

     Current dimensions of program PWSCF are:
     Max number of different atomic species (ntypx) = 10
     Max number of k-points (npk) =  40000
     Max angular momentum in pseudopotentials (lmaxx) =  4
 
     K-points division:     npool     =       4
     R & G space division:  proc/nbgrp/npool/nimage =      64
     Subspace diagonalization in iterative solution of the eigenvalue problem:
     one sub-group per band group will be used
     scalapack distributed-memory algorithm (size of sub-group:  4*  4 procs)

 
     Parallelization info
     --------------------
     sticks:   dense  smooth     PW     G-vecs:    dense   smooth      PW
     Min         118     118     30                10594    10594    1400
     Max         119     119     31                10601    10601    1409
     Sum        7555    7555   1957               678177   678177   89901
 
     Using Pencil Decomposition
 


     bravais-lattice index     =            0
     lattice parameter (alat)  =      18.5058  a.u.
     unit-cell volume          =    7012.9920 (a.u.)^3
     number of atoms/cell      =           54
     number of atomic types    =            2
     number of electrons       =       828.00
     number of Kohn-Sham states=          414
     kinetic-energy cutoff     =      80.0000  Ry
     charge density cutoff     =     320.0000  Ry
     scf convergence threshold =      1.0E-10
     mixing beta               =       0.5000
     number of iterations used =            8  plain     mixing
     Exchange-correlation= PBE
                           (   1   4   3   4   0   0   0)

     celldm(1)=  18.505845  celldm(2)=   0.000000  celldm(3)=   0.000000
     celldm(4)=   0.000000  celldm(5)=   0.000000  celldm(6)=   0.000000

     crystal axes: (cart. coord. in units of alat)
               a(1) = (   1.000000   0.000000   0.000000 )  
               a(2) = (  -0.500000   0.866025   0.000000 )  
               a(3) = (   0.000000   0.000000   1.277750 )  

     reciprocal axes: (cart. coord. in units 2 pi/alat)
               b(1) = (  1.000000  0.577350  0.000000 )  
               b(2) = (  0.000000  1.154701  0.000000 )  
               b(3) = (  0.000000  0.000000  0.782626 )  


     PseudoPot. # 1 for W  read from file:
     /users/rkarkee/pbe_pseudo/W.upf
     MD5 check sum: cb94e439a9e4ea809831d6e90c63864e
     Pseudo is Norm-conserving + core correction, Zval = 14.0
     Generated using ONCVPSP code by D. R. Hamann
     Using radial grid of 1396 points,  8 beta functions with: 
                l(1) =   0
                l(2) =   0
                l(3) =   1
                l(4) =   1
                l(5) =   2
                l(6) =   2
                l(7) =   3
                l(8) =   3

     PseudoPot. # 2 for Se read from file:
     /users/rkarkee/pbe_pseudo/Se.upf
     MD5 check sum: 3cc46b3642295b3f4fdae63b742ce36d
     Pseudo is Norm-conserving + core correction, Zval = 16.0
     Generated using ONCVPSP code by D. R. Hamann
     Using radial grid of 1214 points,  6 beta functions with: 
                l(1) =   0
                l(2) =   0
                l(3) =   1
                l(4) =   1
                l(5) =   2
                l(6) =   2

     atomic species   valence    mass     pseudopotential
     W                14.00   183.84000     W ( 1.00)
     Se               16.00    78.96000     Se( 1.00)

     No symmetry found



   Cartesian axes

     site n.     atom                  positions (alat units)
         1        W      tau(   1) = (  -0.0000000   0.1924501   0.9583127  )
         2        W      tau(   2) = (   0.3333333   0.1924501   0.9583127  )
         3        W      tau(   3) = (   0.6666667   0.1924501   0.9583127  )
         4        W      tau(   4) = (  -0.1666667   0.4811252   0.9583127  )
         5        W      tau(   5) = (   0.1666667   0.4811252   0.9583127  )
         6        W      tau(   6) = (   0.5000000   0.4811252   0.9583127  )
         7        W      tau(   7) = (  -0.3333333   0.7698004   0.9583127  )
         8        W      tau(   8) = (   0.0000000   0.7698004   0.9583127  )
         9        W      tau(   9) = (   0.3333333   0.7698004   0.9583127  )
        10        W      tau(  10) = (   0.1666667   0.0962250   0.3194376  )
        11        W      tau(  11) = (   0.5000000   0.0962250   0.3194376  )
        12        W      tau(  12) = (   0.8333333   0.0962250   0.3194376  )
        13        W      tau(  13) = (  -0.0000000   0.3849002   0.3194376  )
        14        W      tau(  14) = (   0.3333333   0.3849002   0.3194376  )
        15        W      tau(  15) = (   0.6666667   0.3849002   0.3194376  )
        16        W      tau(  16) = (  -0.1666667   0.6735753   0.3194376  )
        17        W      tau(  17) = (   0.1666667   0.6735753   0.3194376  )
        18        W      tau(  18) = (   0.5000000   0.6735753   0.3194376  )
        19        Se     tau(  19) = (   0.0006661   0.1924501   0.1485116  )
        20        Se     tau(  20) = (   0.3333333   0.1924501   0.1476605  )
        21        Se     tau(  21) = (   0.6666667   0.1924501   0.1476605  )
        22        Se     tau(  22) = (  -0.1666667   0.4811252   0.1476605  )
        23        Se     tau(  23) = (   0.1666667   0.4811252   0.1476605  )
        24        Se     tau(  24) = (   0.5000000   0.4811252   0.1476605  )
        25        Se     tau(  25) = (  -0.3333333   0.7698004   0.1476605  )
        26        Se     tau(  26) = (   0.0000000   0.7698004   0.1476605  )
        27        Se     tau(  27) = (   0.3333333   0.7698004   0.1476605  )
        28        Se     tau(  28) = (   0.1666667   0.0962250   1.1300897  )
        29        Se     tau(  29) = (   0.5000000   0.0962250   1.1300897  )
        30        Se     tau(  30) = (   0.8333333   0.0962250   1.1300897  )
        31        Se     tau(  31) = (  -0.0000000   0.3849002   1.1300897  )
        32        Se     tau(  32) = (   0.3333333   0.3849002   1.1300897  )
        33        Se     tau(  33) = (   0.6666667   0.3849002   1.1300897  )
        34        Se     tau(  34) = (  -0.1666667   0.6735753   1.1300897  )
        35        Se     tau(  35) = (   0.1666667   0.6735753   1.1300897  )
        36        Se     tau(  36) = (   0.5000000   0.6735753   1.1300897  )
        37        Se     tau(  37) = (   0.1666667   0.0962250   0.7865357  )
        38        Se     tau(  38) = (   0.5000000   0.0962250   0.7865357  )
        39        Se     tau(  39) = (   0.8333333   0.0962250   0.7865357  )
        40        Se     tau(  40) = (  -0.0000000   0.3849002   0.7865357  )
        41        Se     tau(  41) = (   0.3333333   0.3849002   0.7865357  )
        42        Se     tau(  42) = (   0.6666667   0.3849002   0.7865357  )
        43        Se     tau(  43) = (  -0.1666667   0.6735753   0.7865357  )
        44        Se     tau(  44) = (   0.1666667   0.6735753   0.7865357  )
        45        Se     tau(  45) = (   0.5000000   0.6735753   0.7865357  )
        46        Se     tau(  46) = (  -0.0000000   0.1924501   0.4912146  )
        47        Se     tau(  47) = (   0.3333333   0.1924501   0.4912146  )
        48        Se     tau(  48) = (   0.6666667   0.1924501   0.4912146  )
        49        Se     tau(  49) = (  -0.1666667   0.4811252   0.4912146  )
        50        Se     tau(  50) = (   0.1666667   0.4811252   0.4912146  )
        51        Se     tau(  51) = (   0.5000000   0.4811252   0.4912146  )
        52        Se     tau(  52) = (  -0.3333333   0.7698004   0.4912146  )
        53        Se     tau(  53) = (   0.0000000   0.7698004   0.4912146  )
        54        Se     tau(  54) = (   0.3333333   0.7698004   0.4912146  )

     -------------------------------------------------
     Parameters for Dispersion (Grimme-D2) Correction:
     -------------------------------------------------
       atom      VdW radius       C_6     

        W          3.349       2818.308
        Se         3.347        438.498

     number of k points=    12
                       cart. coord. in units 2pi/alat
        k(    1) = (   0.2500000   0.4330127   0.1956564), wk =   0.1666667
        k(    2) = (   0.2500000  -0.1443376   0.1956564), wk =   0.1666667
        k(    3) = (  -0.2500000  -0.4330127   0.1956564), wk =   0.1666667
        k(    4) = (  -0.2500000   0.4330127  -0.1956564), wk =   0.1666667
        k(    5) = (   0.2500000  -0.4330127  -0.1956564), wk =   0.1666667
        k(    6) = (   0.5000000  -0.0000000   0.1956564), wk =   0.1666667
        k(    7) = (  -0.5000000   0.0000000   0.1956564), wk =   0.1666667
        k(    8) = (  -0.2500000   0.1443376   0.1956564), wk =   0.1666667
        k(    9) = (  -0.2500000  -0.1443376  -0.1956564), wk =   0.1666667
        k(   10) = (   0.2500000   0.1443376  -0.1956564), wk =   0.1666667
        k(   11) = (   0.0000000  -0.2886751   0.1956564), wk =   0.1666667
        k(   12) = (   0.0000000   0.2886751   0.1956564), wk =   0.1666667

     Dense  grid:   678177 G-vectors     FFT dimensions: ( 108, 108, 135)

     Estimated max dynamical RAM per process >     115.36 MB

     Estimated total dynamical RAM >      28.35 GB

     Initial potential from superposition of free atoms

     starting charge     827.9882, renormalised to     828.0000
     Starting wfcs are  504 randomized atomic wfcs

     total cpu time spent up to now is       11.8 secs

     Self-consistent Calculation

     iteration #  1     ecut=    80.00 Ry     beta= 0.50
     Davidson diagonalization with overlap
     ethr =  1.00E-02,  avg # of iterations =  2.0

     Threshold (ethr) on eigenvalues was too large:
     Diagonalizing with lowered threshold

     Davidson diagonalization with overlap
     ethr =  9.49E-05,  avg # of iterations =  5.1

     total cpu time spent up to now is       85.4 secs

     total energy              =  -11463.44414838 Ry
     estimated scf accuracy    <       1.28807133 Ry

     iteration #  2     ecut=    80.00 Ry     beta= 0.50
     Davidson diagonalization with overlap
     ethr =  1.56E-04,  avg # of iterations =  5.0

     total cpu time spent up to now is      120.0 secs

     total energy              =  -11463.50625925 Ry
     estimated scf accuracy    <       0.88728555 Ry

     iteration #  3     ecut=    80.00 Ry     beta= 0.50
     Davidson diagonalization with overlap
     ethr =  1.07E-04,  avg # of iterations =  6.0

     total cpu time spent up to now is      156.4 secs

     total energy              =  -11463.68852119 Ry
     estimated scf accuracy    <       0.22067887 Ry

     iteration #  4     ecut=    80.00 Ry     beta= 0.50
     Davidson diagonalization with overlap
     ethr =  2.67E-05,  avg # of iterations =  5.0

     total cpu time spent up to now is      188.4 secs

     total energy              =  -11463.71284519 Ry
     estimated scf accuracy    <       0.01303131 Ry

     iteration #  5     ecut=    80.00 Ry     beta= 0.50
     Davidson diagonalization with overlap
     ethr =  1.57E-06,  avg # of iterations =  6.5

     total cpu time spent up to now is      232.1 secs

     total energy              =  -11463.72054421 Ry
     estimated scf accuracy    <       0.02624894 Ry

     iteration #  6     ecut=    80.00 Ry     beta= 0.50
     Davidson diagonalization with overlap
     ethr =  1.57E-06,  avg # of iterations =  2.5

     total cpu time spent up to now is      259.8 secs

     total energy              =  -11463.71541024 Ry
     estimated scf accuracy    <       0.01268546 Ry

     iteration #  7     ecut=    80.00 Ry     beta= 0.50
     Davidson diagonalization with overlap
     ethr =  1.53E-06,  avg # of iterations =  6.0

     total cpu time spent up to now is      300.4 secs

     total energy              =  -11463.72094907 Ry
     estimated scf accuracy    <       0.01424134 Ry

     iteration #  8     ecut=    80.00 Ry     beta= 0.50
     Davidson diagonalization with overlap
     ethr =  1.53E-06,  avg # of iterations =  1.6

     total cpu time spent up to now is      324.5 secs

     total energy              =  -11463.71855379 Ry
     estimated scf accuracy    <       0.00981012 Ry

     iteration #  9     ecut=    80.00 Ry     beta= 0.50
     Davidson diagonalization with overlap
     ethr =  1.18E-06,  avg # of iterations =  5.1

     total cpu time spent up to now is      357.2 secs

     total energy              =  -11463.71990594 Ry
     estimated scf accuracy    <       0.00027384 Ry

     iteration # 10     ecut=    80.00 Ry     beta= 0.50
     Davidson diagonalization with overlap
     ethr =  3.31E-08,  avg # of iterations =  6.5

     total cpu time spent up to now is      402.1 secs

     total energy              =  -11463.72005362 Ry
     estimated scf accuracy    <       0.00025134 Ry

     iteration # 11     ecut=    80.00 Ry     beta= 0.50
     Davidson diagonalization with overlap
     ethr =  3.04E-08,  avg # of iterations =  5.2

     total cpu time spent up to now is      434.5 secs

     total energy              =  -11463.72009009 Ry
     estimated scf accuracy    <       0.00000756 Ry

     iteration # 12     ecut=    80.00 Ry     beta= 0.50
     Davidson diagonalization with overlap
     ethr =  9.13E-10,  avg # of iterations =  8.2

     total cpu time spent up to now is      488.6 secs

     total energy              =  -11463.72008908 Ry
     estimated scf accuracy    <       0.00005662 Ry

     iteration # 13     ecut=    80.00 Ry     beta= 0.50
     Davidson diagonalization with overlap
     ethr =  9.13E-10,  avg # of iterations =  6.0

     total cpu time spent up to now is      531.3 secs

     total energy              =  -11463.72009432 Ry
     estimated scf accuracy    <       0.00000185 Ry

     iteration # 14     ecut=    80.00 Ry     beta= 0.50
     Davidson diagonalization with overlap
     ethr =  2.24E-10,  avg # of iterations =  7.0

     total cpu time spent up to now is      574.8 secs

     total energy              =  -11463.72009469 Ry
     estimated scf accuracy    <       0.00000292 Ry

     iteration # 15     ecut=    80.00 Ry     beta= 0.50
     Davidson diagonalization with overlap
     ethr =  2.24E-10,  avg # of iterations =  3.5

     total cpu time spent up to now is      605.2 secs

     total energy              =  -11463.72009483 Ry
     estimated scf accuracy    <       0.00000058 Ry

     iteration # 16     ecut=    80.00 Ry     beta= 0.50
     Davidson diagonalization with overlap
     ethr =  7.03E-11,  avg # of iterations =  6.0

     total cpu time spent up to now is      644.0 secs

     total energy              =  -11463.72009494 Ry
     estimated scf accuracy    <       0.00000012 Ry

     iteration # 17     ecut=    80.00 Ry     beta= 0.50
     Davidson diagonalization with overlap
     ethr =  1.50E-11,  avg # of iterations =  2.7

     total cpu time spent up to now is      671.1 secs

     total energy              =  -11463.72009494 Ry
     estimated scf accuracy    <       0.00000007 Ry

     iteration # 18     ecut=    80.00 Ry     beta= 0.50
     Davidson diagonalization with overlap
     ethr =  8.00E-12,  avg # of iterations =  6.1

     total cpu time spent up to now is      701.2 secs

     total energy              =  -11463.72009493 Ry
     estimated scf accuracy    <       0.00000005 Ry

     iteration # 19     ecut=    80.00 Ry     beta= 0.50
     Davidson diagonalization with overlap
     ethr =  6.03E-12,  avg # of iterations =  6.0

     total cpu time spent up to now is      736.1 secs

     total energy              =  -11463.72009493 Ry
     estimated scf accuracy    <       0.00000003 Ry

     iteration # 20     ecut=    80.00 Ry     beta= 0.50
     Davidson diagonalization with overlap
     ethr =  3.13E-12,  avg # of iterations =  6.0

     total cpu time spent up to now is      769.2 secs

     total energy              =  -11463.72009494 Ry
     estimated scf accuracy    <          4.7E-09 Ry

     iteration # 21     ecut=    80.00 Ry     beta= 0.50
     Davidson diagonalization with overlap
     ethr =  5.66E-13,  avg # of iterations =  6.0

     total cpu time spent up to now is      803.0 secs

     total energy              =  -11463.72009494 Ry
     estimated scf accuracy    <          6.9E-10 Ry

     iteration # 22     ecut=    80.00 Ry     beta= 0.50
     Davidson diagonalization with overlap
     ethr =  1.00E-13,  avg # of iterations =  6.5

     total cpu time spent up to now is      843.6 secs

     total energy              =  -11463.72009494 Ry
     estimated scf accuracy    <          6.3E-10 Ry

     iteration # 23     ecut=    80.00 Ry     beta= 0.50
     Davidson diagonalization with overlap
     ethr =  1.00E-13,  avg # of iterations =  5.1

     total cpu time spent up to now is      873.4 secs

     total energy              =  -11463.72009494 Ry
     estimated scf accuracy    <          2.0E-10 Ry

     iteration # 24     ecut=    80.00 Ry     beta= 0.50
     Davidson diagonalization with overlap
     ethr =  1.00E-13,  avg # of iterations =  2.0

     total cpu time spent up to now is      899.1 secs

     End of self-consistent calculation

          k = 0.2500 0.4330 0.1957 ( 84744 PWs)   bands (ev):

   -59.9613 -59.9611 -59.9591 -59.9586 -59.9586 -59.9585 -59.9541 -59.9538
   -59.9537 -59.9537 -59.9526 -59.9521 -59.9519 -59.9519 -59.9519 -59.9516
   -59.9512 -59.9507 -33.6111 -33.6109 -33.6087 -33.6085 -33.6083 -33.6082
   -33.6081 -33.6081 -33.6080 -33.6080 -33.6080 -33.6080 -33.6079 -33.6077
   -33.6077 -33.6076 -33.6076 -33.6076 -33.6075 -33.6075 -33.6075 -33.6074
   -33.6074 -33.6074 -33.6073 -33.6073 -33.6073 -33.6072 -33.6070 -33.6069
   -33.6069 -33.6069 -33.6068 -33.6068 -33.6067 -33.6066 -33.6066 -33.6065
   -33.6064 -33.6063 -33.6062 -33.6061 -33.6060 -33.6059 -33.6059 -33.6059
   -33.6054 -33.6054 -33.6051 -33.6048 -33.6046 -33.6045 -33.6044 -33.6043
   -33.6042 -33.6042 -33.6040 -33.6040 -33.6040 -33.6039 -33.6038 -33.6038
   -33.6037 -33.6036 -33.6034 -33.6034 -33.6032 -33.6032 -33.6031 -33.6031
   -33.6028 -33.6027 -33.5801 -33.5797 -33.5783 -33.5782 -33.5781 -33.5780
   -33.5780 -33.5779 -33.5778 -33.5777 -33.5776 -33.5775 -33.5775 -33.5774
   -33.5774 -33.5773 -33.5772 -33.5772 -33.5772 -33.5771 -33.5771 -33.5770
   -33.5770 -33.5770 -33.5769 -33.5769 -33.5769 -33.5768 -33.5768 -33.5767
   -33.5767 -33.5767 -33.5766 -33.5765 -33.5765 -33.5764 -33.5764 -33.5763
   -33.5763 -33.5763 -33.5762 -33.5762 -33.5761 -33.5761 -33.5761 -33.5760
   -33.5760 -33.5759 -33.5759 -33.5759 -33.5758 -33.5758 -33.5757 -33.5757
   -33.5757 -33.5756 -33.5756 -33.5756 -33.5755 -33.5754 -33.5753 -33.5753
   -33.5752 -33.5751 -33.5751 -33.5750 -33.5750 -33.5749 -33.5749 -33.5746
   -33.5746 -33.5745 -33.5645 -33.5637 -33.5633 -33.5632 -33.5628 -33.5628
   -33.5626 -33.5624 -33.5622 -33.5621 -33.5619 -33.5618 -33.5618 -33.5617
   -33.5616 -33.5615 -33.5614 -33.5613 -33.5612 -33.5612 -33.5610 -33.5610
   -33.5606 -33.5604 -33.5602 -33.5600 -33.5598 -33.5596 -33.5595 -33.5594
   -33.5594 -33.5592 -33.5591 -33.5591 -33.5589 -33.5588 -24.3120 -24.3118
   -24.3114 -24.3114 -24.3006 -24.3001 -24.2746 -24.2742 -24.2592 -24.2590
   -24.2586 -24.2586 -24.2128 -24.2125 -24.2016 -24.2012 -24.2011 -24.2011
   -24.1787 -24.1782 -24.1782 -24.1782 -24.1758 -24.1753 -24.1705 -24.1704
   -24.1702 -24.1701 -24.1699 -24.1698 -24.1698 -24.1698 -24.1698 -24.1696
   -24.1674 -24.1670 -24.1670 -24.1668 -24.1422 -24.1420 -24.1417 -24.1417
   -24.1377 -24.1375 -24.1372 -24.1372 -24.1173 -24.1169 -24.0963 -24.0962
   -24.0959 -24.0958 -24.0812 -24.0808  -0.7671  -0.4990  -0.3733  -0.3720
    -0.1178  -0.1162   0.3107   0.5387   0.5395   0.5867   0.5879   0.7298
     0.7740   0.7753   0.9086   0.9095   1.0298   1.0746   1.0760   1.0895
     1.0904   1.1552   1.1856   1.1867   1.2463   1.3108   1.3120   1.3265
     1.3384   1.3408   1.3415   1.4354   1.4469   1.4476   1.4723   1.5085
     7.4826   7.5253   7.5261   7.7580   7.8265   7.8276   7.9403   7.9412
     8.0235   8.3113   8.3965   8.4152   8.4163   8.4595   8.5983   8.6206
     8.6215   8.6376   8.6576   8.6583   8.7105   8.7108   8.8372   8.8382
     8.8504   9.0259   9.1685   9.1694   9.2760   9.2773   9.4901   9.4911
     9.5530   9.6273   9.6286   9.6979   9.7280   9.9138   9.9145  10.0040
    10.0040  10.0376  10.0889  10.0896  10.1373  10.1389  10.3261  10.3513
    10.3522  10.4678  10.4682  10.5893  10.6063  10.6103  10.7404  10.8441
    10.8638  10.8647  10.8863  10.8894  10.9492  10.9504  10.9623  10.9631
    11.0289  11.0346  11.0347  11.1323  11.4680  11.4692  11.4739  11.5077
    11.5090  11.6064  11.6079  11.6271  11.6569  11.6581  11.6919  11.6927
    11.7577  11.8837  11.9141  11.9150  11.9975  12.0222  12.0245  12.1960
    12.2107  12.2113  12.2304  12.2338  12.2345  12.2621  12.2627  12.2798
    12.2804  12.2940  12.4086  12.4094  12.4532  12.4544  12.6515  12.6536
    12.8107  12.9378  12.9390  13.0072  13.2931  13.2936  13.2973  13.2983
    13.3073  13.3083  13.3187  13.3196  13.3746  13.3751  13.4352  13.4958
    13.5322  13.5331  13.5957  13.7289  13.7749  13.8436

          k = 0.2500-0.1443 0.1957 ( 84743 PWs)   bands (ev):

   -59.9627 -59.9625 -59.9578 -59.9576 -59.9562 -59.9558 -59.9558 -59.9557
   -59.9536 -59.9535 -59.9533 -59.9533 -59.9527 -59.9526 -59.9510 -59.9509
   -59.9509 -59.9504 -33.6111 -33.6110 -33.6089 -33.6086 -33.6085 -33.6084
   -33.6083 -33.6082 -33.6082 -33.6081 -33.6080 -33.6080 -33.6079 -33.6079
   -33.6078 -33.6078 -33.6078 -33.6077 -33.6077 -33.6077 -33.6076 -33.6076
   -33.6075 -33.6075 -33.6074 -33.6073 -33.6072 -33.6072 -33.6071 -33.6071
   -33.6070 -33.6069 -33.6069 -33.6069 -33.6065 -33.6065 -33.6063 -33.6062
   -33.6060 -33.6057 -33.6055 -33.6055 -33.6054 -33.6053 -33.6052 -33.6051
   -33.6049 -33.6049 -33.6047 -33.6047 -33.6046 -33.6045 -33.6044 -33.6043
   -33.6043 -33.6043 -33.6042 -33.6041 -33.6040 -33.6040 -33.6040 -33.6039
   -33.6038 -33.6038 -33.6037 -33.6037 -33.6036 -33.6034 -33.6033 -33.6033
   -33.6032 -33.6028 -33.5801 -33.5797 -33.5785 -33.5784 -33.5780 -33.5779
   -33.5778 -33.5777 -33.5777 -33.5776 -33.5776 -33.5776 -33.5775 -33.5774
   -33.5773 -33.5772 -33.5772 -33.5772 -33.5771 -33.5771 -33.5771 -33.5771
   -33.5770 -33.5770 -33.5769 -33.5769 -33.5768 -33.5768 -33.5768 -33.5768
   -33.5767 -33.5767 -33.5766 -33.5766 -33.5765 -33.5765 -33.5765 -33.5764
   -33.5764 -33.5763 -33.5763 -33.5763 -33.5762 -33.5762 -33.5762 -33.5761
   -33.5761 -33.5760 -33.5760 -33.5759 -33.5759 -33.5758 -33.5758 -33.5757
   -33.5757 -33.5756 -33.5756 -33.5755 -33.5755 -33.5754 -33.5753 -33.5753
   -33.5752 -33.5751 -33.5749 -33.5749 -33.5748 -33.5748 -33.5747 -33.5746
   -33.5745 -33.5744 -33.5646 -33.5637 -33.5634 -33.5630 -33.5627 -33.5626
   -33.5625 -33.5623 -33.5622 -33.5621 -33.5621 -33.5620 -33.5618 -33.5617
   -33.5617 -33.5616 -33.5615 -33.5614 -33.5612 -33.5612 -33.5610 -33.5607
   -33.5603 -33.5603 -33.5600 -33.5599 -33.5599 -33.5598 -33.5597 -33.5595
   -33.5594 -33.5593 -33.5592 -33.5592 -33.5589 -33.5587 -24.3046 -24.3041
   -24.2825 -24.2821 -24.2818 -24.2818 -24.2780 -24.2776 -24.2773 -24.2773
   -24.2308 -24.2303 -24.2301 -24.2301 -24.2194 -24.2191 -24.2011 -24.2009
   -24.2006 -24.2006 -24.1966 -24.1965 -24.1963 -24.1960 -24.1882 -24.1882
   -24.1879 -24.1879 -24.1767 -24.1767 -24.1765 -24.1764 -24.1736 -24.1734
   -24.1652 -24.1652 -24.1650 -24.1650 -24.1290 -24.1288 -24.1285 -24.1285
   -24.1241 -24.1237 -24.1138 -24.1137 -24.1134 -24.1133 -24.0985 -24.0982
   -24.0862 -24.0857 -24.0728 -24.0725  -0.9773  -0.7051  -0.1904   0.0569
     0.1476   0.1489   0.1888   0.3744   0.3759   0.6320   0.6435   0.6899
     0.6911   0.8378   0.8384   0.8627   0.8641   0.8703   0.9882   1.0156
     1.1323   1.1332   1.1411   1.1417   1.2326   1.3365   1.3380   1.3382
     1.3388   1.3855   1.4013   1.4024   1.4896   1.4905   1.5506   1.5515
     7.2232   7.6275   7.9384   7.9989   7.9993   8.1077   8.2194   8.2203
     8.2231   8.3020   8.3024   8.3590   8.3601   8.3611   8.3618   8.5250
     8.5257   8.6984   8.6997   8.7189   8.8386   8.9002   8.9367   8.9371
     8.9376   8.9378   9.0034   9.0037   9.1781   9.1796   9.3913   9.3922
     9.4809   9.5320   9.5327   9.6178   9.6853   9.6858   9.7380   9.8736
     9.8752  10.0497  10.0506  10.1016  10.1023  10.1168  10.1177  10.1424
    10.1430  10.1483  10.2051  10.2785  10.2796  10.6022  10.7473  10.7521
    10.7533  10.8599  10.8618  10.8777  10.8788  11.0284  11.0287  11.0710
    11.0868  11.0877  11.1875  11.3167  11.3184  11.3901  11.4248  11.6145
    11.6558  11.6561  11.7357  11.8228  11.8373  11.8524  11.8970  11.8981
    11.9500  11.9728  11.9733  11.9820  11.9825  12.0719  12.1925  12.1930
    12.1977  12.2433  12.2444  12.2666  12.2670  12.3498  12.3506  12.3701
    12.3705  12.4672  12.5702  12.5954  12.5960  12.6246  12.6619  12.7307
    12.7368  12.8405  12.9302  12.9640  12.9819  13.0353  13.1084  13.1321
    13.1328  13.1469  13.1473  13.2211  13.2224  13.2236  13.3194  13.3197
    13.6691  13.6692  13.9146  13.9147  13.9291  14.2156

          k =-0.2500-0.4330 0.1957 ( 84744 PWs)   bands (ev):

   -59.9613 -59.9611 -59.9591 -59.9586 -59.9586 -59.9585 -59.9541 -59.9538
   -59.9537 -59.9537 -59.9526 -59.9521 -59.9519 -59.9519 -59.9519 -59.9516
   -59.9512 -59.9507 -33.6111 -33.6109 -33.6087 -33.6085 -33.6083 -33.6082
   -33.6081 -33.6081 -33.6080 -33.6080 -33.6080 -33.6080 -33.6079 -33.6077
   -33.6077 -33.6076 -33.6076 -33.6076 -33.6075 -33.6075 -33.6075 -33.6074
   -33.6074 -33.6074 -33.6073 -33.6073 -33.6072 -33.6072 -33.6070 -33.6069
   -33.6069 -33.6069 -33.6068 -33.6068 -33.6067 -33.6066 -33.6066 -33.6065
   -33.6064 -33.6063 -33.6062 -33.6061 -33.6060 -33.6059 -33.6059 -33.6059
   -33.6054 -33.6054 -33.6051 -33.6048 -33.6046 -33.6045 -33.6044 -33.6043
   -33.6042 -33.6042 -33.6040 -33.6040 -33.6040 -33.6039 -33.6038 -33.6038
   -33.6037 -33.6036 -33.6034 -33.6034 -33.6032 -33.6032 -33.6031 -33.6031
   -33.6028 -33.6027 -33.5801 -33.5797 -33.5783 -33.5782 -33.5781 -33.5780
   -33.5780 -33.5779 -33.5778 -33.5776 -33.5776 -33.5775 -33.5775 -33.5774
   -33.5774 -33.5773 -33.5773 -33.5772 -33.5772 -33.5771 -33.5771 -33.5771
   -33.5770 -33.5770 -33.5769 -33.5769 -33.5769 -33.5769 -33.5768 -33.5767
   -33.5767 -33.5767 -33.5766 -33.5765 -33.5765 -33.5764 -33.5764 -33.5763
   -33.5763 -33.5763 -33.5762 -33.5762 -33.5761 -33.5761 -33.5760 -33.5760
   -33.5760 -33.5759 -33.5759 -33.5758 -33.5758 -33.5758 -33.5757 -33.5757
   -33.5757 -33.5756 -33.5755 -33.5755 -33.5755 -33.5754 -33.5753 -33.5753
   -33.5752 -33.5751 -33.5751 -33.5750 -33.5750 -33.5749 -33.5749 -33.5746
   -33.5746 -33.5745 -33.5645 -33.5637 -33.5633 -33.5632 -33.5628 -33.5628
   -33.5626 -33.5624 -33.5622 -33.5621 -33.5619 -33.5618 -33.5618 -33.5617
   -33.5616 -33.5615 -33.5614 -33.5613 -33.5612 -33.5612 -33.5610 -33.5610
   -33.5606 -33.5604 -33.5602 -33.5600 -33.5598 -33.5596 -33.5595 -33.5594
   -33.5594 -33.5592 -33.5591 -33.5591 -33.5589 -33.5588 -24.3120 -24.3118
   -24.3114 -24.3114 -24.3006 -24.3001 -24.2746 -24.2742 -24.2592 -24.2590
   -24.2586 -24.2586 -24.2128 -24.2125 -24.2016 -24.2012 -24.2011 -24.2011
   -24.1787 -24.1782 -24.1782 -24.1782 -24.1758 -24.1753 -24.1705 -24.1704
   -24.1702 -24.1701 -24.1699 -24.1698 -24.1698 -24.1698 -24.1698 -24.1696
   -24.1674 -24.1670 -24.1670 -24.1668 -24.1422 -24.1420 -24.1417 -24.1417
   -24.1377 -24.1375 -24.1372 -24.1372 -24.1173 -24.1169 -24.0963 -24.0962
   -24.0959 -24.0958 -24.0812 -24.0808  -0.7671  -0.4990  -0.3733  -0.3720
    -0.1178  -0.1162   0.3107   0.5386   0.5395   0.5867   0.5879   0.7298
     0.7740   0.7753   0.9086   0.9095   1.0298   1.0746   1.0760   1.0895
     1.0904   1.1552   1.1855   1.1867   1.2463   1.3108   1.3120   1.3265
     1.3384   1.3408   1.3415   1.4354   1.4469   1.4476   1.4723   1.5085
     7.4826   7.5253   7.5261   7.7580   7.8265   7.8276   7.9403   7.9411
     8.0235   8.3113   8.3966   8.4153   8.4163   8.4595   8.5983   8.6206
     8.6215   8.6376   8.6576   8.6583   8.7103   8.7109   8.8374   8.8383
     8.8504   9.0258   9.1684   9.1695   9.2761   9.2772   9.4900   9.4912
     9.5529   9.6273   9.6287   9.6978   9.7282   9.9138   9.9143  10.0040
    10.0041  10.0378  10.0889  10.0894  10.1373  10.1387  10.3259  10.3515
    10.3520  10.4679  10.4683  10.5893  10.6060  10.6103  10.7406  10.8441
    10.8640  10.8646  10.8866  10.8894  10.9491  10.9504  10.9623  10.9630
    11.0288  11.0346  11.0349  11.1324  11.4679  11.4691  11.4738  11.5075
    11.5090  11.6065  11.6080  11.6272  11.6570  11.6580  11.6920  11.6927
    11.7576  11.8839  11.9142  11.9150  11.9975  12.0221  12.0245  12.1959
    12.2105  12.2114  12.2302  12.2337  12.2345  12.2621  12.2626  12.2799
    12.2805  12.2940  12.4087  12.4093  12.4532  12.4546  12.6514  12.6535
    12.8106  12.9377  12.9391  13.0074  13.2932  13.2936  13.2972  13.2985
    13.3073  13.3084  13.3187  13.3196  13.3746  13.3751  13.4351  13.4959
    13.5322  13.5331  13.5958  13.7287  13.7749  13.8437

          k =-0.2500 0.4330-0.1957 ( 84744 PWs)   bands (ev):

   -59.9613 -59.9611 -59.9591 -59.9586 -59.9586 -59.9584 -59.9542 -59.9537
   -59.9537 -59.9536 -59.9525 -59.9523 -59.9519 -59.9519 -59.9519 -59.9515
   -59.9512 -59.9507 -33.6110 -33.6110 -33.6087 -33.6085 -33.6083 -33.6082
   -33.6081 -33.6081 -33.6081 -33.6080 -33.6080 -33.6080 -33.6079 -33.6077
   -33.6077 -33.6076 -33.6076 -33.6076 -33.6075 -33.6075 -33.6075 -33.6074
   -33.6074 -33.6074 -33.6073 -33.6073 -33.6073 -33.6072 -33.6070 -33.6069
   -33.6069 -33.6068 -33.6068 -33.6068 -33.6067 -33.6066 -33.6066 -33.6065
   -33.6064 -33.6063 -33.6062 -33.6061 -33.6060 -33.6060 -33.6059 -33.6059
   -33.6054 -33.6054 -33.6051 -33.6048 -33.6047 -33.6045 -33.6044 -33.6043
   -33.6042 -33.6042 -33.6040 -33.6040 -33.6040 -33.6039 -33.6038 -33.6038
   -33.6037 -33.6036 -33.6034 -33.6034 -33.6032 -33.6032 -33.6031 -33.6031
   -33.6028 -33.6027 -33.5801 -33.5797 -33.5783 -33.5782 -33.5781 -33.5781
   -33.5779 -33.5779 -33.5778 -33.5777 -33.5776 -33.5776 -33.5774 -33.5774
   -33.5773 -33.5773 -33.5773 -33.5772 -33.5772 -33.5771 -33.5771 -33.5770
   -33.5770 -33.5770 -33.5770 -33.5769 -33.5769 -33.5769 -33.5768 -33.5767
   -33.5767 -33.5767 -33.5766 -33.5766 -33.5765 -33.5765 -33.5764 -33.5763
   -33.5763 -33.5763 -33.5763 -33.5762 -33.5761 -33.5761 -33.5761 -33.5760
   -33.5760 -33.5759 -33.5759 -33.5759 -33.5758 -33.5758 -33.5758 -33.5757
   -33.5757 -33.5756 -33.5756 -33.5755 -33.5755 -33.5753 -33.5753 -33.5753
   -33.5752 -33.5752 -33.5751 -33.5750 -33.5750 -33.5749 -33.5748 -33.5747
   -33.5746 -33.5745 -33.5645 -33.5636 -33.5634 -33.5632 -33.5628 -33.5627
   -33.5626 -33.5624 -33.5622 -33.5622 -33.5619 -33.5618 -33.5618 -33.5617
   -33.5616 -33.5615 -33.5614 -33.5613 -33.5612 -33.5612 -33.5611 -33.5610
   -33.5606 -33.5605 -33.5602 -33.5600 -33.5597 -33.5597 -33.5595 -33.5594
   -33.5594 -33.5593 -33.5591 -33.5590 -33.5589 -33.5588 -24.3121 -24.3118
   -24.3114 -24.3114 -24.3005 -24.3001 -24.2747 -24.2742 -24.2593 -24.2588
   -24.2586 -24.2586 -24.2128 -24.2125 -24.2016 -24.2012 -24.2011 -24.2011
   -24.1787 -24.1783 -24.1782 -24.1782 -24.1757 -24.1753 -24.1705 -24.1704
   -24.1701 -24.1700 -24.1698 -24.1698 -24.1698 -24.1698 -24.1698 -24.1697
   -24.1674 -24.1670 -24.1670 -24.1668 -24.1422 -24.1421 -24.1417 -24.1417
   -24.1378 -24.1373 -24.1372 -24.1372 -24.1174 -24.1169 -24.0964 -24.0961
   -24.0959 -24.0958 -24.0811 -24.0808  -0.7670  -0.4990  -0.3733  -0.3720
    -0.1178  -0.1162   0.3107   0.5387   0.5395   0.5865   0.5879   0.7298
     0.7739   0.7753   0.9086   0.9095   1.0300   1.0751   1.0760   1.0896
     1.0904   1.1553   1.1858   1.1867   1.2460   1.3112   1.3120   1.3264
     1.3383   1.3407   1.3415   1.4355   1.4465   1.4476   1.4722   1.5088
     7.4827   7.5253   7.5258   7.7582   7.8265   7.8272   7.9404   7.9411
     8.0239   8.3112   8.3964   8.4154   8.4162   8.4596   8.5980   8.6207
     8.6216   8.6375   8.6577   8.6584   8.7107   8.7110   8.8373   8.8383
     8.8507   9.0261   9.1684   9.1692   9.2761   9.2772   9.4906   9.4912
     9.5524   9.6267   9.6285   9.6982   9.7279   9.9131   9.9145  10.0038
    10.0042  10.0372  10.0888  10.0896  10.1380  10.1385  10.3257  10.3514
    10.3522  10.4674  10.4687  10.5889  10.6061  10.6102  10.7403  10.8443
    10.8637  10.8646  10.8864  10.8896  10.9498  10.9503  10.9621  10.9632
    11.0292  11.0337  11.0352  11.1323  11.4684  11.4689  11.4739  11.5075
    11.5093  11.6069  11.6077  11.6278  11.6568  11.6576  11.6918  11.6932
    11.7569  11.8834  11.9142  11.9147  11.9973  12.0224  12.0243  12.1970
    12.2106  12.2114  12.2305  12.2339  12.2344  12.2620  12.2634  12.2797
    12.2803  12.2948  12.4086  12.4096  12.4533  12.4541  12.6519  12.6533
    12.8102  12.9380  12.9387  13.0071  13.2931  13.2938  13.2970  13.2980
    13.3074  13.3083  13.3190  13.3197  13.3746  13.3754  13.4352  13.4960
    13.5321  13.5331  13.5957  13.7289  13.7750  13.8432

          k = 0.2500-0.4330-0.1957 ( 84744 PWs)   bands (ev):

   -59.9613 -59.9611 -59.9591 -59.9586 -59.9586 -59.9584 -59.9542 -59.9537
   -59.9537 -59.9536 -59.9525 -59.9523 -59.9519 -59.9519 -59.9519 -59.9515
   -59.9512 -59.9507 -33.6110 -33.6110 -33.6087 -33.6085 -33.6083 -33.6082
   -33.6081 -33.6081 -33.6081 -33.6080 -33.6080 -33.6079 -33.6079 -33.6077
   -33.6077 -33.6076 -33.6076 -33.6076 -33.6075 -33.6075 -33.6075 -33.6074
   -33.6074 -33.6074 -33.6073 -33.6073 -33.6073 -33.6072 -33.6070 -33.6069
   -33.6069 -33.6068 -33.6068 -33.6068 -33.6067 -33.6066 -33.6066 -33.6065
   -33.6064 -33.6063 -33.6062 -33.6061 -33.6060 -33.6060 -33.6059 -33.6059
   -33.6054 -33.6054 -33.6051 -33.6048 -33.6047 -33.6045 -33.6044 -33.6043
   -33.6042 -33.6042 -33.6040 -33.6040 -33.6040 -33.6039 -33.6038 -33.6038
   -33.6037 -33.6036 -33.6034 -33.6034 -33.6032 -33.6032 -33.6031 -33.6031
   -33.6028 -33.6027 -33.5801 -33.5797 -33.5783 -33.5782 -33.5781 -33.5781
   -33.5779 -33.5779 -33.5778 -33.5776 -33.5776 -33.5775 -33.5774 -33.5774
   -33.5774 -33.5773 -33.5773 -33.5772 -33.5772 -33.5771 -33.5771 -33.5770
   -33.5770 -33.5770 -33.5770 -33.5769 -33.5769 -33.5768 -33.5768 -33.5767
   -33.5767 -33.5767 -33.5766 -33.5765 -33.5765 -33.5765 -33.5764 -33.5763
   -33.5763 -33.5763 -33.5762 -33.5762 -33.5761 -33.5761 -33.5761 -33.5760
   -33.5759 -33.5759 -33.5759 -33.5759 -33.5758 -33.5758 -33.5758 -33.5757
   -33.5757 -33.5756 -33.5756 -33.5756 -33.5755 -33.5753 -33.5753 -33.5753
   -33.5752 -33.5752 -33.5751 -33.5750 -33.5750 -33.5749 -33.5748 -33.5747
   -33.5746 -33.5745 -33.5645 -33.5636 -33.5634 -33.5632 -33.5628 -33.5627
   -33.5626 -33.5624 -33.5622 -33.5622 -33.5619 -33.5618 -33.5618 -33.5617
   -33.5616 -33.5615 -33.5614 -33.5613 -33.5612 -33.5612 -33.5611 -33.5610
   -33.5606 -33.5605 -33.5602 -33.5600 -33.5597 -33.5597 -33.5595 -33.5594
   -33.5594 -33.5593 -33.5591 -33.5590 -33.5589 -33.5588 -24.3121 -24.3118
   -24.3114 -24.3114 -24.3005 -24.3001 -24.2747 -24.2742 -24.2593 -24.2588
   -24.2586 -24.2586 -24.2128 -24.2125 -24.2016 -24.2012 -24.2011 -24.2011
   -24.1787 -24.1783 -24.1782 -24.1782 -24.1757 -24.1753 -24.1705 -24.1704
   -24.1701 -24.1700 -24.1698 -24.1698 -24.1698 -24.1698 -24.1698 -24.1697
   -24.1674 -24.1670 -24.1670 -24.1668 -24.1422 -24.1421 -24.1417 -24.1417
   -24.1378 -24.1373 -24.1372 -24.1372 -24.1174 -24.1169 -24.0964 -24.0961
   -24.0959 -24.0958 -24.0811 -24.0808  -0.7670  -0.4990  -0.3733  -0.3720
    -0.1178  -0.1162   0.3107   0.5387   0.5395   0.5865   0.5879   0.7298
     0.7739   0.7753   0.9086   0.9095   1.0300   1.0751   1.0760   1.0896
     1.0904   1.1553   1.1858   1.1867   1.2460   1.3112   1.3120   1.3264
     1.3383   1.3407   1.3415   1.4355   1.4465   1.4476   1.4722   1.5088
     7.4827   7.5253   7.5258   7.7583   7.8265   7.8272   7.9404   7.9411
     8.0238   8.3112   8.3965   8.4154   8.4162   8.4595   8.5980   8.6208
     8.6215   8.6375   8.6578   8.6584   8.7106   8.7111   8.8374   8.8383
     8.8508   9.0261   9.1684   9.1693   9.2761   9.2772   9.4908   9.4911
     9.5523   9.6268   9.6285   9.6981   9.7281   9.9130   9.9145  10.0038
    10.0042  10.0375  10.0887  10.0895  10.1379  10.1384  10.3255  10.3513
    10.3523  10.4677  10.4685  10.5890  10.6058  10.6102  10.7405  10.8443
    10.8640  10.8645  10.8866  10.8896  10.9497  10.9503  10.9620  10.9632
    11.0291  11.0339  11.0353  11.1324  11.4682  11.4689  11.4737  11.5073
    11.5093  11.6071  11.6077  11.6280  11.6569  11.6574  11.6919  11.6931
    11.7568  11.8836  11.9139  11.9150  11.9972  12.0223  12.0244  12.1969
    12.2105  12.2114  12.2303  12.2339  12.2343  12.2620  12.2632  12.2797
    12.2804  12.2948  12.4086  12.4096  12.4534  12.4541  12.6518  12.6533
    12.8102  12.9379  12.9389  13.0074  13.2932  13.2937  13.2969  13.2982
    13.3077  13.3082  13.3189  13.3197  13.3745  13.3755  13.4351  13.4961
    13.5321  13.5330  13.5957  13.7286  13.7750  13.8433

          k = 0.5000-0.0000 0.1957 ( 84744 PWs)   bands (ev):

   -59.9613 -59.9611 -59.9591 -59.9586 -59.9586 -59.9585 -59.9542 -59.9537
   -59.9537 -59.9537 -59.9525 -59.9521 -59.9519 -59.9519 -59.9519 -59.9515
   -59.9512 -59.9507 -33.6110 -33.6110 -33.6087 -33.6086 -33.6082 -33.6082
   -33.6081 -33.6081 -33.6080 -33.6080 -33.6080 -33.6079 -33.6079 -33.6077
   -33.6077 -33.6076 -33.6076 -33.6076 -33.6075 -33.6075 -33.6074 -33.6074
   -33.6074 -33.6074 -33.6074 -33.6073 -33.6072 -33.6072 -33.6070 -33.6069
   -33.6069 -33.6069 -33.6068 -33.6068 -33.6067 -33.6067 -33.6066 -33.6065
   -33.6064 -33.6064 -33.6062 -33.6061 -33.6060 -33.6060 -33.6059 -33.6059
   -33.6054 -33.6054 -33.6050 -33.6048 -33.6046 -33.6046 -33.6044 -33.6043
   -33.6042 -33.6042 -33.6040 -33.6040 -33.6040 -33.6039 -33.6038 -33.6038
   -33.6037 -33.6035 -33.6034 -33.6034 -33.6033 -33.6032 -33.6031 -33.6031
   -33.6028 -33.6027 -33.5801 -33.5797 -33.5783 -33.5783 -33.5781 -33.5780
   -33.5779 -33.5779 -33.5778 -33.5777 -33.5776 -33.5775 -33.5775 -33.5774
   -33.5774 -33.5773 -33.5773 -33.5772 -33.5772 -33.5771 -33.5771 -33.5770
   -33.5770 -33.5770 -33.5769 -33.5769 -33.5769 -33.5768 -33.5768 -33.5767
   -33.5767 -33.5767 -33.5766 -33.5766 -33.5765 -33.5764 -33.5764 -33.5763
   -33.5763 -33.5763 -33.5762 -33.5761 -33.5761 -33.5761 -33.5760 -33.5760
   -33.5760 -33.5759 -33.5759 -33.5759 -33.5758 -33.5758 -33.5758 -33.5757
   -33.5757 -33.5756 -33.5756 -33.5756 -33.5755 -33.5754 -33.5753 -33.5753
   -33.5752 -33.5752 -33.5751 -33.5750 -33.5750 -33.5749 -33.5748 -33.5746
   -33.5746 -33.5745 -33.5645 -33.5637 -33.5633 -33.5632 -33.5628 -33.5627
   -33.5626 -33.5624 -33.5623 -33.5621 -33.5619 -33.5618 -33.5618 -33.5617
   -33.5616 -33.5615 -33.5614 -33.5613 -33.5612 -33.5612 -33.5611 -33.5610
   -33.5606 -33.5605 -33.5602 -33.5600 -33.5597 -33.5596 -33.5595 -33.5595
   -33.5594 -33.5592 -33.5591 -33.5590 -33.5589 -33.5588 -24.3121 -24.3118
   -24.3114 -24.3114 -24.3005 -24.3001 -24.2746 -24.2742 -24.2593 -24.2589
   -24.2586 -24.2586 -24.2128 -24.2125 -24.2016 -24.2012 -24.2011 -24.2011
   -24.1787 -24.1783 -24.1782 -24.1782 -24.1758 -24.1753 -24.1705 -24.1704
   -24.1702 -24.1700 -24.1698 -24.1698 -24.1698 -24.1698 -24.1698 -24.1697
   -24.1674 -24.1670 -24.1670 -24.1668 -24.1422 -24.1421 -24.1417 -24.1417
   -24.1378 -24.1374 -24.1372 -24.1372 -24.1173 -24.1169 -24.0964 -24.0961
   -24.0959 -24.0958 -24.0812 -24.0808  -0.7671  -0.4990  -0.3731  -0.3722
    -0.1176  -0.1163   0.3107   0.5390   0.5391   0.5868   0.5877   0.7298
     0.7740   0.7752   0.9088   0.9093   1.0299   1.0749   1.0760   1.0896
     1.0903   1.1553   1.1857   1.1867   1.2462   1.3110   1.3119   1.3264
     1.3384   1.3408   1.3415   1.4355   1.4467   1.4476   1.4722   1.5086
     7.4826   7.5253   7.5260   7.7581   7.8265   7.8274   7.9406   7.9409
     8.0237   8.3113   8.3965   8.4153   8.4162   8.4596   8.5981   8.6207
     8.6215   8.6376   8.6577   8.6583   8.7106   8.7110   8.8372   8.8382
     8.8505   9.0260   9.1685   9.1693   9.2761   9.2772   9.4903   9.4912
     9.5528   9.6271   9.6284   9.6981   9.7278   9.9136   9.9144  10.0039
    10.0040  10.0373  10.0889  10.0896  10.1376  10.1388  10.3259  10.3514
    10.3523  10.4675  10.4685  10.5890  10.6065  10.6102  10.7403  10.8442
    10.8635  10.8647  10.8863  10.8895  10.9495  10.9504  10.9624  10.9630
    11.0292  11.0340  11.0349  11.1322  11.4682  11.4690  11.4741  11.5078
    11.5090  11.6065  11.6078  11.6274  11.6567  11.6581  11.6920  11.6928
    11.7574  11.8834  11.9140  11.9149  11.9974  12.0224  12.0243  12.1965
    12.2108  12.2112  12.2306  12.2339  12.2344  12.2621  12.2632  12.2798
    12.2803  12.2944  12.4086  12.4094  12.4533  12.4541  12.6518  12.6534
    12.8105  12.9380  12.9387  13.0070  13.2931  13.2938  13.2972  13.2981
    13.3073  13.3083  13.3188  13.3197  13.3747  13.3753  13.4352  13.4959
    13.5321  13.5331  13.5957  13.7290  13.7750  13.8433

          k =-0.5000 0.0000 0.1957 ( 84744 PWs)   bands (ev):

   -59.9613 -59.9611 -59.9591 -59.9586 -59.9586 -59.9585 -59.9542 -59.9537
   -59.9537 -59.9537 -59.9525 -59.9521 -59.9519 -59.9519 -59.9519 -59.9515
   -59.9512 -59.9507 -33.6110 -33.6110 -33.6087 -33.6086 -33.6082 -33.6082
   -33.6081 -33.6081 -33.6080 -33.6080 -33.6080 -33.6079 -33.6079 -33.6077
   -33.6077 -33.6076 -33.6076 -33.6076 -33.6075 -33.6075 -33.6074 -33.6074
   -33.6074 -33.6074 -33.6073 -33.6073 -33.6072 -33.6072 -33.6070 -33.6069
   -33.6069 -33.6069 -33.6068 -33.6068 -33.6067 -33.6067 -33.6066 -33.6065
   -33.6064 -33.6064 -33.6062 -33.6061 -33.6060 -33.6060 -33.6059 -33.6059
   -33.6054 -33.6054 -33.6050 -33.6048 -33.6046 -33.6046 -33.6044 -33.6043
   -33.6042 -33.6042 -33.6040 -33.6040 -33.6040 -33.6039 -33.6038 -33.6038
   -33.6037 -33.6035 -33.6034 -33.6034 -33.6033 -33.6032 -33.6031 -33.6031
   -33.6028 -33.6027 -33.5801 -33.5797 -33.5783 -33.5783 -33.5781 -33.5780
   -33.5779 -33.5779 -33.5778 -33.5777 -33.5776 -33.5775 -33.5775 -33.5774
   -33.5774 -33.5773 -33.5773 -33.5772 -33.5772 -33.5771 -33.5771 -33.5770
   -33.5770 -33.5770 -33.5769 -33.5769 -33.5769 -33.5768 -33.5768 -33.5768
   -33.5767 -33.5767 -33.5766 -33.5766 -33.5765 -33.5764 -33.5764 -33.5763
   -33.5763 -33.5763 -33.5762 -33.5762 -33.5761 -33.5761 -33.5761 -33.5760
   -33.5760 -33.5759 -33.5759 -33.5758 -33.5758 -33.5758 -33.5758 -33.5757
   -33.5757 -33.5756 -33.5756 -33.5755 -33.5755 -33.5754 -33.5753 -33.5753
   -33.5752 -33.5752 -33.5751 -33.5750 -33.5750 -33.5749 -33.5748 -33.5746
   -33.5746 -33.5745 -33.5645 -33.5637 -33.5633 -33.5632 -33.5628 -33.5627
   -33.5626 -33.5624 -33.5623 -33.5621 -33.5619 -33.5618 -33.5618 -33.5617
   -33.5616 -33.5615 -33.5614 -33.5613 -33.5612 -33.5611 -33.5611 -33.5610
   -33.5606 -33.5605 -33.5602 -33.5600 -33.5597 -33.5596 -33.5595 -33.5595
   -33.5594 -33.5592 -33.5591 -33.5590 -33.5589 -33.5588 -24.3121 -24.3118
   -24.3114 -24.3114 -24.3005 -24.3001 -24.2746 -24.2742 -24.2593 -24.2589
   -24.2586 -24.2586 -24.2128 -24.2125 -24.2016 -24.2012 -24.2011 -24.2011
   -24.1787 -24.1783 -24.1782 -24.1782 -24.1758 -24.1753 -24.1705 -24.1704
   -24.1702 -24.1700 -24.1698 -24.1698 -24.1698 -24.1698 -24.1698 -24.1697
   -24.1674 -24.1670 -24.1670 -24.1668 -24.1422 -24.1421 -24.1417 -24.1417
   -24.1378 -24.1374 -24.1372 -24.1372 -24.1173 -24.1169 -24.0964 -24.0961
   -24.0959 -24.0958 -24.0812 -24.0808  -0.7671  -0.4990  -0.3731  -0.3722
    -0.1176  -0.1163   0.3107   0.5390   0.5391   0.5868   0.5877   0.7298
     0.7741   0.7752   0.9088   0.9093   1.0299   1.0748   1.0760   1.0896
     1.0903   1.1553   1.1857   1.1867   1.2461   1.3110   1.3120   1.3265
     1.3384   1.3408   1.3415   1.4354   1.4467   1.4476   1.4722   1.5086
     7.4827   7.5253   7.5260   7.7582   7.8265   7.8274   7.9405   7.9409
     8.0237   8.3112   8.3966   8.4154   8.4162   8.4595   8.5982   8.6207
     8.6215   8.6375   8.6578   8.6582   8.7104   8.7111   8.8376   8.8382
     8.8506   9.0259   9.1684   9.1694   9.2761   9.2772   9.4903   9.4913
     9.5525   9.6272   9.6285   9.6978   9.7282   9.9134   9.9143  10.0039
    10.0042  10.0377  10.0888  10.0893  10.1376  10.1385  10.3256  10.3514
    10.3521  10.4681  10.4682  10.5892  10.6058  10.6102  10.7407  10.8442
    10.8641  10.8646  10.8867  10.8895  10.9493  10.9504  10.9622  10.9631
    11.0289  11.0344  11.0350  11.1324  11.4678  11.4689  11.4738  11.5075
    11.5090  11.6069  11.6079  11.6277  11.6567  11.6579  11.6922  11.6927
    11.7571  11.8839  11.9139  11.9152  11.9974  12.0222  12.0244  12.1964
    12.2105  12.2114  12.2302  12.2339  12.2343  12.2620  12.2628  12.2799
    12.2804  12.2944  12.4087  12.4094  12.4533  12.4544  12.6516  12.6533
    12.8104  12.9378  12.9390  13.0075  13.2933  13.2937  13.2970  13.2984
    13.3076  13.3083  13.3187  13.3197  13.3745  13.3753  13.4351  13.4960
    13.5322  13.5330  13.5958  13.7285  13.7749  13.8435

          k =-0.2500 0.1443 0.1957 ( 84743 PWs)   bands (ev):

   -59.9627 -59.9625 -59.9578 -59.9576 -59.9562 -59.9558 -59.9558 -59.9557
   -59.9536 -59.9535 -59.9533 -59.9533 -59.9527 -59.9526 -59.9510 -59.9509
   -59.9509 -59.9504 -33.6111 -33.6110 -33.6089 -33.6086 -33.6085 -33.6084
   -33.6083 -33.6082 -33.6082 -33.6081 -33.6080 -33.6080 -33.6079 -33.6079
   -33.6078 -33.6078 -33.6078 -33.6077 -33.6077 -33.6077 -33.6076 -33.6076
   -33.6075 -33.6075 -33.6074 -33.6073 -33.6072 -33.6072 -33.6071 -33.6071
   -33.6070 -33.6069 -33.6069 -33.6069 -33.6065 -33.6065 -33.6063 -33.6062
   -33.6060 -33.6057 -33.6055 -33.6055 -33.6054 -33.6054 -33.6052 -33.6051
   -33.6049 -33.6049 -33.6047 -33.6047 -33.6046 -33.6045 -33.6044 -33.6043
   -33.6043 -33.6043 -33.6042 -33.6041 -33.6040 -33.6040 -33.6040 -33.6039
   -33.6038 -33.6038 -33.6037 -33.6037 -33.6036 -33.6034 -33.6033 -33.6033
   -33.6032 -33.6028 -33.5801 -33.5797 -33.5785 -33.5784 -33.5780 -33.5779
   -33.5778 -33.5777 -33.5777 -33.5776 -33.5776 -33.5776 -33.5775 -33.5774
   -33.5773 -33.5772 -33.5772 -33.5772 -33.5771 -33.5771 -33.5771 -33.5770
   -33.5770 -33.5770 -33.5769 -33.5769 -33.5769 -33.5768 -33.5768 -33.5767
   -33.5767 -33.5766 -33.5766 -33.5766 -33.5765 -33.5765 -33.5765 -33.5764
   -33.5763 -33.5763 -33.5763 -33.5763 -33.5762 -33.5762 -33.5762 -33.5761
   -33.5761 -33.5761 -33.5760 -33.5759 -33.5759 -33.5758 -33.5758 -33.5757
   -33.5757 -33.5756 -33.5756 -33.5755 -33.5755 -33.5754 -33.5753 -33.5753
   -33.5752 -33.5751 -33.5749 -33.5749 -33.5748 -33.5748 -33.5747 -33.5746
   -33.5745 -33.5744 -33.5646 -33.5637 -33.5634 -33.5630 -33.5627 -33.5626
   -33.5625 -33.5623 -33.5622 -33.5622 -33.5621 -33.5620 -33.5618 -33.5617
   -33.5617 -33.5616 -33.5615 -33.5614 -33.5612 -33.5612 -33.5610 -33.5607
   -33.5603 -33.5603 -33.5600 -33.5599 -33.5599 -33.5598 -33.5597 -33.5595
   -33.5594 -33.5593 -33.5592 -33.5592 -33.5589 -33.5587 -24.3046 -24.3041
   -24.2825 -24.2821 -24.2818 -24.2818 -24.2780 -24.2776 -24.2773 -24.2773
   -24.2308 -24.2303 -24.2301 -24.2301 -24.2194 -24.2191 -24.2011 -24.2009
   -24.2006 -24.2006 -24.1966 -24.1965 -24.1963 -24.1960 -24.1882 -24.1882
   -24.1879 -24.1879 -24.1767 -24.1767 -24.1765 -24.1764 -24.1736 -24.1734
   -24.1652 -24.1652 -24.1650 -24.1650 -24.1290 -24.1288 -24.1285 -24.1285
   -24.1241 -24.1237 -24.1138 -24.1137 -24.1134 -24.1133 -24.0985 -24.0982
   -24.0862 -24.0857 -24.0728 -24.0725  -0.9773  -0.7051  -0.1904   0.0569
     0.1476   0.1489   0.1888   0.3744   0.3759   0.6320   0.6435   0.6898
     0.6911   0.8378   0.8384   0.8628   0.8640   0.8703   0.9882   1.0156
     1.1324   1.1332   1.1410   1.1417   1.2327   1.3363   1.3380   1.3383
     1.3388   1.3855   1.4013   1.4024   1.4895   1.4905   1.5507   1.5515
     7.2232   7.6276   7.9383   7.9988   7.9992   8.1075   8.2196   8.2204
     8.2230   8.3021   8.3027   8.3591   8.3602   8.3607   8.3617   8.5249
     8.5261   8.6986   8.6993   8.7189   8.8387   8.9008   8.9362   8.9366
     8.9379   8.9381   9.0031   9.0034   9.1781   9.1793   9.3920   9.3931
     9.4808   9.5321   9.5326   9.6181   9.6850   9.6856   9.7366   9.8747
     9.8753  10.0495  10.0508  10.1009  10.1020  10.1163  10.1179  10.1428
    10.1431  10.1483  10.2057  10.2779  10.2790  10.6022  10.7474  10.7526
    10.7533  10.8611  10.8616  10.8774  10.8790  11.0280  11.0284  11.0710
    11.0862  11.0877  11.1875  11.3171  11.3183  11.3900  11.4248  11.6149
    11.6558  11.6567  11.7357  11.8228  11.8374  11.8524  11.8972  11.8975
    11.9496  11.9725  11.9729  11.9821  11.9829  12.0718  12.1922  12.1933
    12.1973  12.2437  12.2440  12.2663  12.2673  12.3498  12.3503  12.3697
    12.3707  12.4672  12.5702  12.5959  12.5961  12.6244  12.6619  12.7308
    12.7368  12.8404  12.9306  12.9640  12.9819  13.0360  13.1080  13.1325
    13.1330  13.1463  13.1471  13.2217  13.2227  13.2235  13.3191  13.3194
    13.6690  13.6691  13.9147  13.9148  13.9287  14.2157

          k =-0.2500-0.1443-0.1957 ( 84743 PWs)   bands (ev):

   -59.9627 -59.9625 -59.9578 -59.9576 -59.9560 -59.9559 -59.9558 -59.9558
   -59.9537 -59.9534 -59.9533 -59.9533 -59.9527 -59.9527 -59.9510 -59.9509
   -59.9509 -59.9504 -33.6111 -33.6110 -33.6089 -33.6086 -33.6084 -33.6084
   -33.6083 -33.6082 -33.6082 -33.6082 -33.6080 -33.6079 -33.6079 -33.6079
   -33.6078 -33.6078 -33.6078 -33.6077 -33.6077 -33.6077 -33.6076 -33.6075
   -33.6075 -33.6075 -33.6074 -33.6073 -33.6072 -33.6072 -33.6071 -33.6071
   -33.6070 -33.6070 -33.6070 -33.6069 -33.6065 -33.6065 -33.6063 -33.6062
   -33.6060 -33.6057 -33.6055 -33.6055 -33.6054 -33.6053 -33.6052 -33.6051
   -33.6050 -33.6049 -33.6047 -33.6047 -33.6045 -33.6045 -33.6044 -33.6044
   -33.6043 -33.6043 -33.6042 -33.6041 -33.6040 -33.6040 -33.6040 -33.6039
   -33.6039 -33.6038 -33.6037 -33.6037 -33.6036 -33.6034 -33.6033 -33.6033
   -33.6032 -33.6028 -33.5801 -33.5797 -33.5785 -33.5784 -33.5780 -33.5779
   -33.5778 -33.5777 -33.5777 -33.5777 -33.5776 -33.5775 -33.5775 -33.5774
   -33.5773 -33.5772 -33.5772 -33.5772 -33.5771 -33.5771 -33.5771 -33.5771
   -33.5770 -33.5770 -33.5770 -33.5769 -33.5769 -33.5768 -33.5768 -33.5767
   -33.5767 -33.5766 -33.5766 -33.5766 -33.5765 -33.5765 -33.5764 -33.5764
   -33.5764 -33.5763 -33.5763 -33.5763 -33.5762 -33.5762 -33.5762 -33.5761
   -33.5761 -33.5761 -33.5760 -33.5760 -33.5759 -33.5758 -33.5758 -33.5757
   -33.5756 -33.5756 -33.5756 -33.5755 -33.5755 -33.5755 -33.5753 -33.5753
   -33.5752 -33.5751 -33.5749 -33.5749 -33.5748 -33.5748 -33.5747 -33.5746
   -33.5746 -33.5744 -33.5646 -33.5637 -33.5634 -33.5630 -33.5628 -33.5626
   -33.5625 -33.5623 -33.5622 -33.5621 -33.5621 -33.5620 -33.5618 -33.5617
   -33.5617 -33.5617 -33.5615 -33.5614 -33.5612 -33.5612 -33.5610 -33.5607
   -33.5603 -33.5603 -33.5601 -33.5599 -33.5599 -33.5598 -33.5597 -33.5595
   -33.5594 -33.5593 -33.5592 -33.5592 -33.5589 -33.5587 -24.3045 -24.3041
   -24.2825 -24.2821 -24.2818 -24.2818 -24.2780 -24.2775 -24.2773 -24.2773
   -24.2308 -24.2305 -24.2301 -24.2301 -24.2194 -24.2191 -24.2011 -24.2009
   -24.2006 -24.2006 -24.1966 -24.1964 -24.1963 -24.1960 -24.1882 -24.1882
   -24.1879 -24.1879 -24.1768 -24.1767 -24.1765 -24.1764 -24.1736 -24.1734
   -24.1652 -24.1652 -24.1650 -24.1650 -24.1290 -24.1287 -24.1285 -24.1285
   -24.1242 -24.1237 -24.1139 -24.1135 -24.1134 -24.1133 -24.0986 -24.0982
   -24.0861 -24.0857 -24.0729 -24.0725  -0.9773  -0.7051  -0.1905   0.0568
     0.1478   0.1489   0.1888   0.3746   0.3758   0.6320   0.6436   0.6900
     0.6910   0.8377   0.8384   0.8628   0.8640   0.8701   0.9883   1.0154
     1.1320   1.1332   1.1410   1.1417   1.2328   1.3364   1.3380   1.3382
     1.3387   1.3859   1.4013   1.4023   1.4896   1.4905   1.5506   1.5515
     7.2232   7.6278   7.9386   7.9987   7.9991   8.1075   8.2193   8.2204
     8.2231   8.3021   8.3025   8.3592   8.3601   8.3610   8.3617   8.5251
     8.5257   8.6985   8.6995   8.7188   8.8384   8.9005   8.9360   8.9366
     8.9377   8.9383   9.0031   9.0033   9.1779   9.1793   9.3922   9.3932
     9.4802   9.5322   9.5328   9.6180   9.6856   9.6857   9.7371   9.8746
     9.8752  10.0495  10.0507  10.1015  10.1019  10.1169  10.1179  10.1429
    10.1432  10.1480  10.2059  10.2782  10.2790  10.6022  10.7474  10.7531
    10.7531  10.8614  10.8619  10.8774  10.8786  11.0281  11.0286  11.0704
    11.0871  11.0878  11.1870  11.3173  11.3181  11.3898  11.4245  11.6152
    11.6557  11.6561  11.7350  11.8231  11.8366  11.8527  11.8963  11.8974
    11.9505  11.9724  11.9735  11.9817  11.9823  12.0722  12.1921  12.1930
    12.1982  12.2440  12.2445  12.2659  12.2668  12.3499  12.3504  12.3697
    12.3713  12.4674  12.5703  12.5955  12.5961  12.6243  12.6608  12.7312
    12.7357  12.8415  12.9305  12.9639  12.9823  13.0365  13.1083  13.1320
    13.1326  13.1458  13.1467  13.2222  13.2229  13.2231  13.3189  13.3197
    13.6690  13.6691  13.9146  13.9148  13.9292  14.2157

          k = 0.2500 0.1443-0.1957 ( 84743 PWs)   bands (ev):

   -59.9627 -59.9625 -59.9578 -59.9576 -59.9560 -59.9559 -59.9558 -59.9558
   -59.9537 -59.9534 -59.9533 -59.9533 -59.9527 -59.9527 -59.9510 -59.9509
   -59.9509 -59.9504 -33.6111 -33.6110 -33.6089 -33.6086 -33.6084 -33.6084
   -33.6083 -33.6082 -33.6082 -33.6082 -33.6080 -33.6079 -33.6079 -33.6079
   -33.6078 -33.6078 -33.6078 -33.6077 -33.6077 -33.6077 -33.6076 -33.6075
   -33.6075 -33.6075 -33.6074 -33.6073 -33.6072 -33.6072 -33.6071 -33.6071
   -33.6070 -33.6070 -33.6070 -33.6069 -33.6065 -33.6065 -33.6063 -33.6062
   -33.6060 -33.6057 -33.6055 -33.6055 -33.6054 -33.6053 -33.6052 -33.6051
   -33.6050 -33.6049 -33.6047 -33.6047 -33.6045 -33.6045 -33.6044 -33.6044
   -33.6043 -33.6043 -33.6042 -33.6041 -33.6040 -33.6040 -33.6040 -33.6039
   -33.6039 -33.6038 -33.6037 -33.6037 -33.6036 -33.6034 -33.6033 -33.6033
   -33.6032 -33.6028 -33.5801 -33.5797 -33.5785 -33.5784 -33.5780 -33.5778
   -33.5778 -33.5777 -33.5777 -33.5776 -33.5776 -33.5775 -33.5775 -33.5774
   -33.5773 -33.5773 -33.5772 -33.5772 -33.5771 -33.5771 -33.5771 -33.5771
   -33.5770 -33.5770 -33.5769 -33.5769 -33.5769 -33.5768 -33.5768 -33.5767
   -33.5767 -33.5766 -33.5766 -33.5766 -33.5765 -33.5765 -33.5765 -33.5764
   -33.5764 -33.5763 -33.5763 -33.5762 -33.5762 -33.5762 -33.5762 -33.5761
   -33.5761 -33.5760 -33.5760 -33.5759 -33.5759 -33.5758 -33.5758 -33.5757
   -33.5757 -33.5756 -33.5756 -33.5755 -33.5755 -33.5754 -33.5754 -33.5753
   -33.5752 -33.5751 -33.5749 -33.5749 -33.5748 -33.5748 -33.5748 -33.5746
   -33.5746 -33.5744 -33.5646 -33.5637 -33.5634 -33.5630 -33.5628 -33.5626
   -33.5625 -33.5623 -33.5622 -33.5621 -33.5621 -33.5620 -33.5618 -33.5617
   -33.5617 -33.5617 -33.5615 -33.5614 -33.5612 -33.5612 -33.5610 -33.5607
   -33.5603 -33.5603 -33.5601 -33.5599 -33.5599 -33.5598 -33.5597 -33.5595
   -33.5594 -33.5593 -33.5592 -33.5592 -33.5589 -33.5587 -24.3045 -24.3041
   -24.2825 -24.2821 -24.2818 -24.2818 -24.2780 -24.2775 -24.2773 -24.2773
   -24.2308 -24.2305 -24.2301 -24.2301 -24.2194 -24.2191 -24.2011 -24.2009
   -24.2006 -24.2006 -24.1966 -24.1964 -24.1963 -24.1960 -24.1882 -24.1882
   -24.1879 -24.1879 -24.1768 -24.1767 -24.1765 -24.1764 -24.1736 -24.1734
   -24.1652 -24.1652 -24.1650 -24.1650 -24.1290 -24.1287 -24.1285 -24.1285
   -24.1242 -24.1237 -24.1139 -24.1135 -24.1134 -24.1133 -24.0986 -24.0982
   -24.0861 -24.0857 -24.0729 -24.0725  -0.9773  -0.7051  -0.1905   0.0568
     0.1478   0.1488   0.1888   0.3746   0.3758   0.6320   0.6436   0.6900
     0.6910   0.8376   0.8384   0.8629   0.8640   0.8701   0.9883   1.0155
     1.1321   1.1332   1.1410   1.1417   1.2328   1.3362   1.3380   1.3384
     1.3387   1.3859   1.4014   1.4023   1.4894   1.4905   1.5507   1.5515
     7.2232   7.6278   7.9387   7.9988   7.9992   8.1074   8.2195   8.2203
     8.2230   8.3019   8.3023   8.3590   8.3599   8.3608   8.3619   8.5248
     8.5261   8.6986   8.6992   8.7189   8.8383   8.9004   8.9367   8.9371
     8.9377   8.9379   9.0030   9.0044   9.1782   9.1797   9.3909   9.3920
     9.4802   9.5322   9.5328   9.6180   9.6853   9.6859   9.7377   9.8746
     9.8751  10.0496  10.0505  10.1016  10.1024  10.1171  10.1174  10.1426
    10.1434  10.1480  10.2052  10.2784  10.2794  10.6025  10.7475  10.7520
    10.7529  10.8612  10.8618  10.8782  10.8788  11.0284  11.0288  11.0705
    11.0873  11.0877  11.1870  11.3170  11.3179  11.3898  11.4246  11.6157
    11.6558  11.6567  11.7350  11.8231  11.8367  11.8527  11.8967  11.8971
    11.9499  11.9724  11.9730  11.9818  11.9824  12.0716  12.1924  12.1933
    12.1979  12.2433  12.2440  12.2662  12.2671  12.3494  12.3502  12.3703
    12.3706  12.4673  12.5704  12.5956  12.5966  12.6251  12.6608  12.7313
    12.7357  12.8413  12.9311  12.9639  12.9823  13.0357  13.1089  13.1315
    13.1325  13.1463  13.1467  13.2215  13.2229  13.2232  13.3193  13.3198
    13.6690  13.6692  13.9145  13.9148  13.9288  14.2159

          k = 0.0000-0.2887 0.1957 ( 84743 PWs)   bands (ev):

   -59.9627 -59.9625 -59.9578 -59.9576 -59.9561 -59.9558 -59.9558 -59.9558
   -59.9537 -59.9535 -59.9533 -59.9533 -59.9527 -59.9526 -59.9510 -59.9509
   -59.9509 -59.9504 -33.6111 -33.6110 -33.6087 -33.6086 -33.6086 -33.6083
   -33.6083 -33.6082 -33.6082 -33.6081 -33.6080 -33.6079 -33.6079 -33.6079
   -33.6078 -33.6078 -33.6078 -33.6078 -33.6077 -33.6077 -33.6076 -33.6075
   -33.6075 -33.6075 -33.6074 -33.6073 -33.6072 -33.6072 -33.6071 -33.6071
   -33.6070 -33.6070 -33.6069 -33.6069 -33.6065 -33.6065 -33.6063 -33.6062
   -33.6060 -33.6057 -33.6055 -33.6054 -33.6054 -33.6053 -33.6052 -33.6051
   -33.6049 -33.6049 -33.6047 -33.6047 -33.6047 -33.6045 -33.6045 -33.6044
   -33.6043 -33.6043 -33.6043 -33.6041 -33.6040 -33.6040 -33.6040 -33.6039
   -33.6038 -33.6038 -33.6037 -33.6037 -33.6036 -33.6033 -33.6033 -33.6033
   -33.6032 -33.6028 -33.5801 -33.5797 -33.5785 -33.5784 -33.5780 -33.5779
   -33.5778 -33.5777 -33.5777 -33.5777 -33.5776 -33.5775 -33.5775 -33.5774
   -33.5773 -33.5773 -33.5772 -33.5772 -33.5771 -33.5771 -33.5771 -33.5770
   -33.5770 -33.5770 -33.5770 -33.5769 -33.5769 -33.5768 -33.5768 -33.5767
   -33.5767 -33.5766 -33.5766 -33.5766 -33.5765 -33.5765 -33.5765 -33.5764
   -33.5764 -33.5763 -33.5763 -33.5763 -33.5762 -33.5762 -33.5762 -33.5761
   -33.5761 -33.5761 -33.5760 -33.5759 -33.5759 -33.5758 -33.5758 -33.5757
   -33.5756 -33.5756 -33.5756 -33.5755 -33.5755 -33.5754 -33.5754 -33.5753
   -33.5752 -33.5751 -33.5749 -33.5749 -33.5748 -33.5748 -33.5747 -33.5746
   -33.5745 -33.5744 -33.5646 -33.5637 -33.5634 -33.5631 -33.5627 -33.5625
   -33.5625 -33.5623 -33.5622 -33.5622 -33.5621 -33.5620 -33.5618 -33.5617
   -33.5617 -33.5617 -33.5615 -33.5614 -33.5612 -33.5612 -33.5610 -33.5607
   -33.5603 -33.5603 -33.5600 -33.5599 -33.5599 -33.5598 -33.5597 -33.5595
   -33.5594 -33.5593 -33.5592 -33.5592 -33.5589 -33.5587 -24.3046 -24.3041
   -24.2825 -24.2821 -24.2818 -24.2818 -24.2780 -24.2775 -24.2773 -24.2773
   -24.2308 -24.2304 -24.2301 -24.2301 -24.2194 -24.2191 -24.2011 -24.2009
   -24.2006 -24.2006 -24.1966 -24.1964 -24.1963 -24.1960 -24.1882 -24.1882
   -24.1879 -24.1879 -24.1767 -24.1767 -24.1765 -24.1764 -24.1736 -24.1734
   -24.1652 -24.1652 -24.1650 -24.1650 -24.1290 -24.1288 -24.1285 -24.1285
   -24.1241 -24.1237 -24.1139 -24.1136 -24.1134 -24.1133 -24.0986 -24.0982
   -24.0861 -24.0857 -24.0729 -24.0725  -0.9773  -0.7051  -0.1905   0.0568
     0.1475   0.1491   0.1888   0.3743   0.3760   0.6320   0.6435   0.6898
     0.6911   0.8375   0.8386   0.8627   0.8641   0.8702   0.9882   1.0155
     1.1321   1.1333   1.1409   1.1418   1.2328   1.3364   1.3381   1.3382
     1.3387   1.3857   1.4013   1.4024   1.4895   1.4905   1.5506   1.5515
     7.2232   7.6277   7.9385   7.9987   7.9992   8.1075   8.2191   8.2207
     8.2231   8.3020   8.3028   8.3591   8.3603   8.3606   8.3620   8.5249
     8.5260   8.6985   8.6994   8.7189   8.8386   8.9006   8.9360   8.9367
     8.9378   8.9382   9.0030   9.0034   9.1780   9.1793   9.3920   9.3933
     9.4805   9.5320   9.5329   9.6181   9.6853   9.6857   9.7369   9.8743
     9.8755  10.0489  10.0514  10.1011  10.1021  10.1165  10.1180  10.1427
    10.1433  10.1482  10.2058  10.2777  10.2793  10.6022  10.7474  10.7528
    10.7532  10.8612  10.8618  10.8769  10.8793  11.0279  11.0287  11.0707
    11.0864  11.0879  11.1872  11.3172  11.3182  11.3899  11.4247  11.6150
    11.6557  11.6565  11.7354  11.8230  11.8370  11.8525  11.8967  11.8975
    11.9501  11.9727  11.9730  11.9816  11.9828  12.0720  12.1919  12.1934
    12.1977  12.2438  12.2443  12.2657  12.2675  12.3497  12.3505  12.3699
    12.3708  12.4673  12.5703  12.5957  12.5961  12.6244  12.6614  12.7309
    12.7363  12.8409  12.9306  12.9640  12.9821  13.0362  13.1082  13.1320
    13.1330  13.1459  13.1470  13.2219  13.2229  13.2233  13.3190  13.3196
    13.6690  13.6691  13.9146  13.9148  13.9290  14.2157

          k = 0.0000 0.2887 0.1957 ( 84743 PWs)   bands (ev):

   -59.9627 -59.9625 -59.9578 -59.9576 -59.9561 -59.9558 -59.9558 -59.9558
   -59.9537 -59.9535 -59.9533 -59.9533 -59.9527 -59.9526 -59.9510 -59.9509
   -59.9509 -59.9504 -33.6111 -33.6110 -33.6087 -33.6086 -33.6086 -33.6083
   -33.6083 -33.6082 -33.6082 -33.6081 -33.6080 -33.6079 -33.6079 -33.6079
   -33.6078 -33.6078 -33.6078 -33.6078 -33.6077 -33.6077 -33.6076 -33.6075
   -33.6075 -33.6075 -33.6074 -33.6073 -33.6072 -33.6072 -33.6071 -33.6071
   -33.6070 -33.6070 -33.6069 -33.6069 -33.6065 -33.6065 -33.6063 -33.6061
   -33.6060 -33.6057 -33.6055 -33.6054 -33.6054 -33.6053 -33.6052 -33.6051
   -33.6049 -33.6049 -33.6047 -33.6047 -33.6047 -33.6045 -33.6045 -33.6044
   -33.6043 -33.6043 -33.6043 -33.6041 -33.6040 -33.6040 -33.6040 -33.6039
   -33.6038 -33.6038 -33.6037 -33.6037 -33.6036 -33.6033 -33.6033 -33.6033
   -33.6032 -33.6028 -33.5801 -33.5797 -33.5785 -33.5784 -33.5780 -33.5779
   -33.5778 -33.5777 -33.5777 -33.5776 -33.5776 -33.5775 -33.5775 -33.5774
   -33.5773 -33.5773 -33.5772 -33.5772 -33.5771 -33.5771 -33.5771 -33.5771
   -33.5770 -33.5770 -33.5769 -33.5769 -33.5769 -33.5768 -33.5768 -33.5768
   -33.5767 -33.5767 -33.5766 -33.5766 -33.5765 -33.5765 -33.5765 -33.5764
   -33.5764 -33.5763 -33.5763 -33.5763 -33.5762 -33.5762 -33.5762 -33.5761
   -33.5761 -33.5761 -33.5760 -33.5760 -33.5759 -33.5758 -33.5758 -33.5757
   -33.5757 -33.5756 -33.5756 -33.5755 -33.5755 -33.5755 -33.5753 -33.5753
   -33.5752 -33.5751 -33.5749 -33.5749 -33.5748 -33.5748 -33.5747 -33.5746
   -33.5745 -33.5744 -33.5646 -33.5637 -33.5634 -33.5631 -33.5627 -33.5625
   -33.5625 -33.5623 -33.5622 -33.5622 -33.5621 -33.5620 -33.5618 -33.5617
   -33.5617 -33.5617 -33.5615 -33.5614 -33.5612 -33.5612 -33.5610 -33.5607
   -33.5603 -33.5603 -33.5600 -33.5599 -33.5599 -33.5599 -33.5597 -33.5595
   -33.5594 -33.5593 -33.5592 -33.5592 -33.5589 -33.5587 -24.3046 -24.3041
   -24.2825 -24.2821 -24.2818 -24.2818 -24.2780 -24.2775 -24.2773 -24.2773
   -24.2308 -24.2304 -24.2301 -24.2301 -24.2194 -24.2191 -24.2011 -24.2009
   -24.2006 -24.2006 -24.1966 -24.1964 -24.1963 -24.1960 -24.1882 -24.1882
   -24.1879 -24.1879 -24.1767 -24.1767 -24.1765 -24.1764 -24.1736 -24.1734
   -24.1652 -24.1652 -24.1650 -24.1650 -24.1290 -24.1288 -24.1285 -24.1285
   -24.1241 -24.1237 -24.1139 -24.1136 -24.1134 -24.1133 -24.0986 -24.0982
   -24.0861 -24.0857 -24.0729 -24.0725  -0.9773  -0.7051  -0.1905   0.0568
     0.1475   0.1491   0.1888   0.3743   0.3760   0.6320   0.6436   0.6898
     0.6912   0.8376   0.8386   0.8627   0.8641   0.8702   0.9882   1.0155
     1.1321   1.1333   1.1409   1.1418   1.2327   1.3363   1.3380   1.3383
     1.3387   1.3857   1.4013   1.4024   1.4895   1.4905   1.5506   1.5515
     7.2232   7.6277   7.9386   7.9987   7.9994   8.1076   8.2191   8.2206
     8.2231   8.3019   8.3024   8.3589   8.3601   8.3608   8.3621   8.5248
     8.5260   8.6984   8.6995   8.7189   8.8384   8.9003   8.9367   8.9371
     8.9376   8.9379   9.0032   9.0041   9.1781   9.1797   9.3911   9.3921
     9.4806   9.5319   9.5329   9.6179   9.6851   9.6861   9.7378   9.8740
     9.8752  10.0494  10.0508  10.1016  10.1024  10.1169  10.1176  10.1423
    10.1434  10.1482  10.2052  10.2779  10.2800  10.6023  10.7474  10.7516
    10.7535  10.8603  10.8620  10.8781  10.8786  11.0284  11.0288  11.0707
    11.0870  11.0878  11.1872  11.3167  11.3183  11.3899  11.4247  11.6151
    11.6557  11.6564  11.7354  11.8230  11.8370  11.8525  11.8969  11.8976
    11.9500  11.9724  11.9734  11.9816  11.9827  12.0718  12.1923  12.1933
    12.1978  12.2431  12.2444  12.2662  12.2672  12.3493  12.3507  12.3703
    12.3704  12.4672  12.5703  12.5957  12.5961  12.6249  12.6613  12.7309
    12.7363  12.8409  12.9306  12.9640  12.9821  13.0355  13.1086  13.1317
    13.1328  13.1464  13.1471  13.2213  13.2227  13.2234  13.3193  13.3198
    13.6690  13.6692  13.9146  13.9148  13.9289  14.2158

     highest occupied level (ev):    14.2159

!    total energy              =  -11463.72009494 Ry
     estimated scf accuracy    <          6.8E-11 Ry

     The total energy is the sum of the following terms:
     one-electron contribution =   -5079.98562141 Ry
     hartree contribution      =    2842.90444946 Ry
     xc contribution           =   -2342.62732175 Ry
     ewald contribution        =   -6882.00317782 Ry
     Dispersion Correction     =      -2.00842343 Ry

     convergence has been achieved in  24 iterations

     Forces acting on atoms (cartesian axes, Ry/au):

     atom    1 type  1   force =     0.00001350   -0.00000011   -0.00004779
     atom    2 type  1   force =     0.00000026   -0.00000841    0.00000599
     atom    3 type  1   force =     0.00000606   -0.00000362    0.00001094
     atom    4 type  1   force =     0.00000680    0.00000114    0.00000424
     atom    5 type  1   force =    -0.00000652   -0.00000059    0.00001281
     atom    6 type  1   force =    -0.00000124   -0.00000020   -0.00000456
     atom    7 type  1   force =     0.00000810    0.00000389    0.00000165
     atom    8 type  1   force =    -0.00000544   -0.00000004   -0.00000891
     atom    9 type  1   force =     0.00000070    0.00000741    0.00001526
     atom   10 type  1   force =     0.00219981   -0.00111767    0.00230793
     atom   11 type  1   force =     0.00001860    0.00001111    0.00004565
     atom   12 type  1   force =    -0.00005992   -0.00018728    0.00064361
     atom   13 type  1   force =     0.00026423    0.00129492    0.00146576
     atom   14 type  1   force =     0.00006894    0.00009474    0.00009876
     atom   15 type  1   force =    -0.00002545   -0.00003989    0.00004120
     atom   16 type  1   force =     0.00000402   -0.00000818    0.00004381
     atom   17 type  1   force =     0.00002356   -0.00000265    0.00004735
     atom   18 type  1   force =    -0.00009479   -0.00005400    0.00006986
     atom   19 type  2   force =    -0.00295322    0.00001114   -0.00396067
     atom   20 type  2   force =     0.00019730    0.00000151    0.00088520
     atom   21 type  2   force =     0.00026471    0.00001484    0.00083213
     atom   22 type  2   force =     0.00004977   -0.00015213    0.00083967
     atom   23 type  2   force =     0.00002834    0.00008306    0.00087766
     atom   24 type  2   force =    -0.00000504    0.00000013    0.00096323
     atom   25 type  2   force =     0.00001405   -0.00007807    0.00086640
     atom   26 type  2   force =    -0.00000483   -0.00000023    0.00096312
     atom   27 type  2   force =     0.00006379    0.00013022    0.00085130
     atom   28 type  2   force =    -0.00006050    0.00002597   -0.00092868
     atom   29 type  2   force =     0.00000135   -0.00000377   -0.00096056
     atom   30 type  2   force =     0.00010667    0.00006996   -0.00079932
     atom   31 type  2   force =    -0.00001508   -0.00009630   -0.00086381
     atom   32 type  2   force =    -0.00000558    0.00000027   -0.00097298
     atom   33 type  2   force =     0.00000564   -0.00000643   -0.00096411
     atom   34 type  2   force =     0.00000464    0.00000192   -0.00095795
     atom   35 type  2   force =    -0.00000169    0.00000188   -0.00096312
     atom   36 type  2   force =    -0.00000591    0.00000660   -0.00096862
     atom   37 type  2   force =    -0.00000114    0.00000055    0.00090265
     atom   38 type  2   force =    -0.00000331   -0.00000011    0.00090034
     atom   39 type  2   force =     0.00000011   -0.00000009    0.00090218
     atom   40 type  2   force =    -0.00000008   -0.00000063    0.00090236
     atom   41 type  2   force =     0.00000075    0.00000152    0.00089697
     atom   42 type  2   force =    -0.00000224    0.00000021    0.00089943
     atom   43 type  2   force =    -0.00000085    0.00000146    0.00090016
     atom   44 type  2   force =    -0.00000092   -0.00000118    0.00090048
     atom   45 type  2   force =    -0.00000207   -0.00000153    0.00089823
     atom   46 type  2   force =    -0.00006243   -0.00000005   -0.00043014
     atom   47 type  2   force =     0.00006996    0.00006516   -0.00084932
     atom   48 type  2   force =    -0.00001804    0.00001562   -0.00091907
     atom   49 type  2   force =    -0.00008336    0.00001286   -0.00087408
     atom   50 type  2   force =     0.00003072    0.00002302   -0.00089516
     atom   51 type  2   force =     0.00000968    0.00000007   -0.00092922
     atom   52 type  2   force =    -0.00003921   -0.00011413   -0.00083904
     atom   53 type  2   force =     0.00000960   -0.00000017   -0.00092941
     atom   54 type  2   force =    -0.00001282   -0.00000375   -0.00092981

     Total force =     0.008275     Total SCF correction =     0.000059


     Computing stress (Cartesian axis) and pressure

          total   stress  (Ry/bohr**3)                   (kbar)     P=       39.99
   0.00032165  -0.00000030   0.00000094           47.32       -0.04        0.14
  -0.00000030   0.00032164  -0.00000001           -0.04       47.32       -0.00
   0.00000094  -0.00000001   0.00017229            0.14       -0.00       25.35


     Writing all to output data dir ./WSe.save/ :
     XML data file, charge density, pseudopotentials, collected wavefunctions
 
     init_run     :      9.74s CPU     11.52s WALL (       1 calls)
     electrons    :    729.05s CPU    887.50s WALL (       1 calls)
     forces       :      7.28s CPU      7.96s WALL (       1 calls)
     force_london :      0.10s CPU      0.13s WALL (       1 calls)
     stress       :    107.35s CPU    115.53s WALL (       1 calls)
     stres_london :      0.04s CPU      0.04s WALL (       1 calls)

     Called by init_run:
     wfcinit      :      9.17s CPU     10.80s WALL (       1 calls)
     potinit      :      0.05s CPU      0.08s WALL (       1 calls)
     hinit0       :      0.17s CPU      0.23s WALL (       1 calls)

     Called by electrons:
     c_bands      :    688.13s CPU    839.64s WALL (      25 calls)
     sum_band     :     38.94s CPU     45.26s WALL (      25 calls)
     v_of_rho     :      1.34s CPU      1.54s WALL (      25 calls)
     mix_rho      :      0.52s CPU      0.60s WALL (      25 calls)
     energy_londo :      0.05s CPU      0.05s WALL (       1 calls)

     Called by c_bands:
     init_us_2    :      8.40s CPU      8.48s WALL (     159 calls)
     init_us_2:cp :      8.39s CPU      8.48s WALL (     159 calls)
     cegterg      :    653.73s CPU    791.20s WALL (      75 calls)

     Called by *egterg:
     cdiaghg      :     45.80s CPU    117.01s WALL (     449 calls)
     h_psi        :    374.62s CPU    411.50s WALL (     455 calls)
     g_psi        :      1.46s CPU      1.51s WALL (     377 calls)

     Called by h_psi:
     h_psi:calbec :     98.90s CPU    105.25s WALL (     455 calls)
     vloc_psi     :    185.48s CPU    215.06s WALL (     455 calls)
     add_vuspsi   :     86.61s CPU     87.05s WALL (     455 calls)

     General routines
     calbec       :    105.81s CPU    115.58s WALL (     470 calls)
     fft          :      0.94s CPU      1.21s WALL (     275 calls)
     ffts         :      0.07s CPU      0.08s WALL (      25 calls)
     fftw         :    200.47s CPU    232.30s WALL (  197542 calls)
 
     Parallel routines
     fft_scatt_xy :     20.91s CPU     23.64s WALL (  197842 calls)
     fft_scatt_yz :    113.00s CPU    133.89s WALL (  197842 calls)
 
     PWSCF        :  14m15.39s CPU  17m11.21s WALL

 
   This run was terminated on:  17:43:57   5Nov2024            

=------------------------------------------------------------------------------=
   JOB DONE.
=------------------------------------------------------------------------------=
