
     Program PWSCF v.7.3 starts on  5Nov2024 at 17: 8:44 

     This program is part of the open-source Quantum ESPRESSO suite
     for quantum simulation of materials; please cite
         "P. Giannozzi et al., J. Phys.:Condens. Matter 21 395502 (2009);
         "P. Giannozzi et al., J. Phys.:Condens. Matter 29 465901 (2017);
         "P. Giannozzi et al., J. Chem. Phys. 152 154105 (2020);
          URL http://www.quantum-espresso.org", 
     in publications or presentations arising from this work. More details at
     http://www.quantum-espresso.org/quote

     Parallel version (MPI & OpenMP), running on     256 processor cores
     Number of MPI processes:               256
     Threads/MPI process:                     1

     MPI processes distributed on     1 nodes
     490625 MiB available memory on the printing compute node when the environment starts
 
     Waiting for input...
     Reading input from standard input

     Current dimensions of program PWSCF are:
     Max number of different atomic species (ntypx) = 10
     Max number of k-points (npk) =  40000
     Max angular momentum in pseudopotentials (lmaxx) =  4

     File ./WSe.fire deleted, as requested
 
     K-points division:     npool     =       4
     R & G space division:  proc/nbgrp/npool/nimage =      64
     Subspace diagonalization in iterative solution of the eigenvalue problem:
     one sub-group per band group will be used
     scalapack distributed-memory algorithm (size of sub-group:  4*  4 procs)

 
     Parallelization info
     --------------------
     sticks:   dense  smooth     PW     G-vecs:    dense   smooth      PW
     Min         118     118     30                10594    10594    1400
     Max         119     119     31                10601    10601    1409
     Sum        7555    7555   1957               678177   678177   89901
 
     Using Pencil Decomposition
 


     bravais-lattice index     =            0
     lattice parameter (alat)  =      18.5058  a.u.
     unit-cell volume          =    7012.9920 (a.u.)^3
     number of atoms/cell      =           54
     number of atomic types    =            2
     number of electrons       =       828.00
     number of Kohn-Sham states=          414
     kinetic-energy cutoff     =      80.0000  Ry
     charge density cutoff     =     320.0000  Ry
     scf convergence threshold =      1.0E-10
     mixing beta               =       0.5000
     number of iterations used =            8  plain     mixing
     Exchange-correlation= PBE
                           (   1   4   3   4   0   0   0)

     celldm(1)=  18.505845  celldm(2)=   0.000000  celldm(3)=   0.000000
     celldm(4)=   0.000000  celldm(5)=   0.000000  celldm(6)=   0.000000

     crystal axes: (cart. coord. in units of alat)
               a(1) = (   1.000000   0.000000   0.000000 )  
               a(2) = (  -0.500000   0.866025   0.000000 )  
               a(3) = (   0.000000   0.000000   1.277750 )  

     reciprocal axes: (cart. coord. in units 2 pi/alat)
               b(1) = (  1.000000  0.577350  0.000000 )  
               b(2) = (  0.000000  1.154701  0.000000 )  
               b(3) = (  0.000000  0.000000  0.782626 )  


     PseudoPot. # 1 for W  read from file:
     /users/rkarkee/pbe_pseudo/W.upf
     MD5 check sum: cb94e439a9e4ea809831d6e90c63864e
     Pseudo is Norm-conserving + core correction, Zval = 14.0
     Generated using ONCVPSP code by D. R. Hamann
     Using radial grid of 1396 points,  8 beta functions with: 
                l(1) =   0
                l(2) =   0
                l(3) =   1
                l(4) =   1
                l(5) =   2
                l(6) =   2
                l(7) =   3
                l(8) =   3

     PseudoPot. # 2 for Se read from file:
     /users/rkarkee/pbe_pseudo/Se.upf
     MD5 check sum: 3cc46b3642295b3f4fdae63b742ce36d
     Pseudo is Norm-conserving + core correction, Zval = 16.0
     Generated using ONCVPSP code by D. R. Hamann
     Using radial grid of 1214 points,  6 beta functions with: 
                l(1) =   0
                l(2) =   0
                l(3) =   1
                l(4) =   1
                l(5) =   2
                l(6) =   2

     atomic species   valence    mass     pseudopotential
     W                14.00   183.84000     W ( 1.00)
     Se               16.00    78.96000     Se( 1.00)

     No symmetry found



   Cartesian axes

     site n.     atom                  positions (alat units)
         1        W      tau(   1) = (   0.0006661   0.1924501   0.9591638  )
         2        W      tau(   2) = (   0.3333333   0.1924501   0.9583127  )
         3        W      tau(   3) = (   0.6666667   0.1924501   0.9583127  )
         4        W      tau(   4) = (  -0.1666667   0.4811252   0.9583127  )
         5        W      tau(   5) = (   0.1666667   0.4811252   0.9583127  )
         6        W      tau(   6) = (   0.5000000   0.4811252   0.9583127  )
         7        W      tau(   7) = (  -0.3333333   0.7698004   0.9583127  )
         8        W      tau(   8) = (   0.0000000   0.7698004   0.9583127  )
         9        W      tau(   9) = (   0.3333333   0.7698004   0.9583127  )
        10        W      tau(  10) = (   0.1666667   0.0962250   0.3194376  )
        11        W      tau(  11) = (   0.5000000   0.0962250   0.3194376  )
        12        W      tau(  12) = (   0.8333333   0.0962250   0.3194376  )
        13        W      tau(  13) = (  -0.0000000   0.3849002   0.3194376  )
        14        W      tau(  14) = (   0.3333333   0.3849002   0.3194376  )
        15        W      tau(  15) = (   0.6666667   0.3849002   0.3194376  )
        16        W      tau(  16) = (  -0.1666667   0.6735753   0.3194376  )
        17        W      tau(  17) = (   0.1666667   0.6735753   0.3194376  )
        18        W      tau(  18) = (   0.5000000   0.6735753   0.3194376  )
        19        Se     tau(  19) = (  -0.0000000   0.1924501   0.1476605  )
        20        Se     tau(  20) = (   0.3333333   0.1924501   0.1476605  )
        21        Se     tau(  21) = (   0.6666667   0.1924501   0.1476605  )
        22        Se     tau(  22) = (  -0.1666667   0.4811252   0.1476605  )
        23        Se     tau(  23) = (   0.1666667   0.4811252   0.1476605  )
        24        Se     tau(  24) = (   0.5000000   0.4811252   0.1476605  )
        25        Se     tau(  25) = (  -0.3333333   0.7698004   0.1476605  )
        26        Se     tau(  26) = (   0.0000000   0.7698004   0.1476605  )
        27        Se     tau(  27) = (   0.3333333   0.7698004   0.1476605  )
        28        Se     tau(  28) = (   0.1666667   0.0962250   1.1300897  )
        29        Se     tau(  29) = (   0.5000000   0.0962250   1.1300897  )
        30        Se     tau(  30) = (   0.8333333   0.0962250   1.1300897  )
        31        Se     tau(  31) = (  -0.0000000   0.3849002   1.1300897  )
        32        Se     tau(  32) = (   0.3333333   0.3849002   1.1300897  )
        33        Se     tau(  33) = (   0.6666667   0.3849002   1.1300897  )
        34        Se     tau(  34) = (  -0.1666667   0.6735753   1.1300897  )
        35        Se     tau(  35) = (   0.1666667   0.6735753   1.1300897  )
        36        Se     tau(  36) = (   0.5000000   0.6735753   1.1300897  )
        37        Se     tau(  37) = (   0.1666667   0.0962250   0.7865357  )
        38        Se     tau(  38) = (   0.5000000   0.0962250   0.7865357  )
        39        Se     tau(  39) = (   0.8333333   0.0962250   0.7865357  )
        40        Se     tau(  40) = (  -0.0000000   0.3849002   0.7865357  )
        41        Se     tau(  41) = (   0.3333333   0.3849002   0.7865357  )
        42        Se     tau(  42) = (   0.6666667   0.3849002   0.7865357  )
        43        Se     tau(  43) = (  -0.1666667   0.6735753   0.7865357  )
        44        Se     tau(  44) = (   0.1666667   0.6735753   0.7865357  )
        45        Se     tau(  45) = (   0.5000000   0.6735753   0.7865357  )
        46        Se     tau(  46) = (  -0.0000000   0.1924501   0.4912146  )
        47        Se     tau(  47) = (   0.3333333   0.1924501   0.4912146  )
        48        Se     tau(  48) = (   0.6666667   0.1924501   0.4912146  )
        49        Se     tau(  49) = (  -0.1666667   0.4811252   0.4912146  )
        50        Se     tau(  50) = (   0.1666667   0.4811252   0.4912146  )
        51        Se     tau(  51) = (   0.5000000   0.4811252   0.4912146  )
        52        Se     tau(  52) = (  -0.3333333   0.7698004   0.4912146  )
        53        Se     tau(  53) = (   0.0000000   0.7698004   0.4912146  )
        54        Se     tau(  54) = (   0.3333333   0.7698004   0.4912146  )

     -------------------------------------------------
     Parameters for Dispersion (Grimme-D2) Correction:
     -------------------------------------------------
       atom      VdW radius       C_6     

        W          3.349       2818.308
        Se         3.347        438.498

     number of k points=    12
                       cart. coord. in units 2pi/alat
        k(    1) = (   0.2500000   0.4330127   0.1956564), wk =   0.1666667
        k(    2) = (   0.2500000  -0.1443376   0.1956564), wk =   0.1666667
        k(    3) = (  -0.2500000  -0.4330127   0.1956564), wk =   0.1666667
        k(    4) = (  -0.2500000   0.4330127  -0.1956564), wk =   0.1666667
        k(    5) = (   0.2500000  -0.4330127  -0.1956564), wk =   0.1666667
        k(    6) = (   0.5000000  -0.0000000   0.1956564), wk =   0.1666667
        k(    7) = (  -0.5000000   0.0000000   0.1956564), wk =   0.1666667
        k(    8) = (  -0.2500000   0.1443376   0.1956564), wk =   0.1666667
        k(    9) = (  -0.2500000  -0.1443376  -0.1956564), wk =   0.1666667
        k(   10) = (   0.2500000   0.1443376  -0.1956564), wk =   0.1666667
        k(   11) = (   0.0000000  -0.2886751   0.1956564), wk =   0.1666667
        k(   12) = (   0.0000000   0.2886751   0.1956564), wk =   0.1666667

     Dense  grid:   678177 G-vectors     FFT dimensions: ( 108, 108, 135)

     Estimated max dynamical RAM per process >     115.36 MB

     Estimated total dynamical RAM >      28.35 GB

     Initial potential from superposition of free atoms

     starting charge     827.9882, renormalised to     828.0000
     Starting wfcs are  504 randomized atomic wfcs

     total cpu time spent up to now is       12.6 secs

     Self-consistent Calculation

     iteration #  1     ecut=    80.00 Ry     beta= 0.50
     Davidson diagonalization with overlap
     ethr =  1.00E-02,  avg # of iterations =  2.0

     Threshold (ethr) on eigenvalues was too large:
     Diagonalizing with lowered threshold

     Davidson diagonalization with overlap
     ethr =  9.49E-05,  avg # of iterations =  5.1

     total cpu time spent up to now is       86.1 secs

     total energy              =  -11463.44417006 Ry
     estimated scf accuracy    <       1.28789018 Ry

     iteration #  2     ecut=    80.00 Ry     beta= 0.50
     Davidson diagonalization with overlap
     ethr =  1.56E-04,  avg # of iterations =  5.0

     total cpu time spent up to now is      120.7 secs

     total energy              =  -11463.50624739 Ry
     estimated scf accuracy    <       0.88689611 Ry

     iteration #  3     ecut=    80.00 Ry     beta= 0.50
     Davidson diagonalization with overlap
     ethr =  1.07E-04,  avg # of iterations =  6.0

     total cpu time spent up to now is      157.1 secs

     total energy              =  -11463.68862306 Ry
     estimated scf accuracy    <       0.21974524 Ry

     iteration #  4     ecut=    80.00 Ry     beta= 0.50
     Davidson diagonalization with overlap
     ethr =  2.65E-05,  avg # of iterations =  5.0

     total cpu time spent up to now is      189.0 secs

     total energy              =  -11463.71282651 Ry
     estimated scf accuracy    <       0.01308798 Ry

     iteration #  5     ecut=    80.00 Ry     beta= 0.50
     Davidson diagonalization with overlap
     ethr =  1.58E-06,  avg # of iterations =  6.4

     total cpu time spent up to now is      233.3 secs

     total energy              =  -11463.72021970 Ry
     estimated scf accuracy    <       0.03334932 Ry

     iteration #  6     ecut=    80.00 Ry     beta= 0.50
     Davidson diagonalization with overlap
     ethr =  1.58E-06,  avg # of iterations =  4.0

     total cpu time spent up to now is      262.8 secs

     total energy              =  -11463.71519396 Ry
     estimated scf accuracy    <       0.01409296 Ry

     iteration #  7     ecut=    80.00 Ry     beta= 0.50
     Davidson diagonalization with overlap
     ethr =  1.58E-06,  avg # of iterations =  6.0

     total cpu time spent up to now is      303.8 secs

     total energy              =  -11463.72083660 Ry
     estimated scf accuracy    <       0.01353204 Ry

     iteration #  8     ecut=    80.00 Ry     beta= 0.50
     Davidson diagonalization with overlap
     ethr =  1.58E-06,  avg # of iterations =  1.8

     total cpu time spent up to now is      328.7 secs

     total energy              =  -11463.71865964 Ry
     estimated scf accuracy    <       0.00947145 Ry

     iteration #  9     ecut=    80.00 Ry     beta= 0.50
     Davidson diagonalization with overlap
     ethr =  1.14E-06,  avg # of iterations =  4.7

     total cpu time spent up to now is      360.1 secs

     total energy              =  -11463.71983712 Ry
     estimated scf accuracy    <       0.00032030 Ry

     iteration # 10     ecut=    80.00 Ry     beta= 0.50
     Davidson diagonalization with overlap
     ethr =  3.87E-08,  avg # of iterations =  6.4

     total cpu time spent up to now is      404.1 secs

     total energy              =  -11463.72001100 Ry
     estimated scf accuracy    <       0.00022628 Ry

     iteration # 11     ecut=    80.00 Ry     beta= 0.50
     Davidson diagonalization with overlap
     ethr =  2.73E-08,  avg # of iterations =  3.3

     total cpu time spent up to now is      433.6 secs

     total energy              =  -11463.72002811 Ry
     estimated scf accuracy    <       0.00002033 Ry

     iteration # 12     ecut=    80.00 Ry     beta= 0.50
     Davidson diagonalization with overlap
     ethr =  2.46E-09,  avg # of iterations =  6.7

     total cpu time spent up to now is      476.9 secs

     total energy              =  -11463.72003488 Ry
     estimated scf accuracy    <       0.00002712 Ry

     iteration # 13     ecut=    80.00 Ry     beta= 0.50
     Davidson diagonalization with overlap
     ethr =  2.46E-09,  avg # of iterations =  4.2

     total cpu time spent up to now is      507.3 secs

     total energy              =  -11463.72003572 Ry
     estimated scf accuracy    <       0.00000432 Ry

     iteration # 14     ecut=    80.00 Ry     beta= 0.50
     Davidson diagonalization with overlap
     ethr =  5.22E-10,  avg # of iterations =  6.8

     total cpu time spent up to now is      550.4 secs

     total energy              =  -11463.72003751 Ry
     estimated scf accuracy    <       0.00000522 Ry

     iteration # 15     ecut=    80.00 Ry     beta= 0.50
     Davidson diagonalization with overlap
     ethr =  5.22E-10,  avg # of iterations =  2.0

     total cpu time spent up to now is      575.8 secs

     total energy              =  -11463.72003691 Ry
     estimated scf accuracy    <       0.00000319 Ry

     iteration # 16     ecut=    80.00 Ry     beta= 0.50
     Davidson diagonalization with overlap
     ethr =  3.85E-10,  avg # of iterations =  5.0

     total cpu time spent up to now is      608.2 secs

     total energy              =  -11463.72003728 Ry
     estimated scf accuracy    <       0.00000024 Ry

     iteration # 17     ecut=    80.00 Ry     beta= 0.50
     Davidson diagonalization with overlap
     ethr =  2.86E-11,  avg # of iterations =  6.2

     total cpu time spent up to now is      650.7 secs

     total energy              =  -11463.72003735 Ry
     estimated scf accuracy    <       0.00000020 Ry

     iteration # 18     ecut=    80.00 Ry     beta= 0.50
     Davidson diagonalization with overlap
     ethr =  2.46E-11,  avg # of iterations =  2.0

     total cpu time spent up to now is      675.7 secs

     total energy              =  -11463.72003730 Ry
     estimated scf accuracy    <       0.00000013 Ry

     iteration # 19     ecut=    80.00 Ry     beta= 0.50
     Davidson diagonalization with overlap
     ethr =  1.52E-11,  avg # of iterations =  6.0

     total cpu time spent up to now is      713.0 secs

     total energy              =  -11463.72003734 Ry
     estimated scf accuracy    <       0.00000006 Ry

     iteration # 20     ecut=    80.00 Ry     beta= 0.50
     Davidson diagonalization with overlap
     ethr =  7.02E-12,  avg # of iterations =  3.2

     total cpu time spent up to now is      741.6 secs

     total energy              =  -11463.72003734 Ry
     estimated scf accuracy    <       0.00000003 Ry

     iteration # 21     ecut=    80.00 Ry     beta= 0.50
     Davidson diagonalization with overlap
     ethr =  3.09E-12,  avg # of iterations =  6.4

     total cpu time spent up to now is      776.7 secs

     total energy              =  -11463.72003734 Ry
     estimated scf accuracy    <          3.2E-09 Ry

     iteration # 22     ecut=    80.00 Ry     beta= 0.50
     Davidson diagonalization with overlap
     ethr =  3.81E-13,  avg # of iterations =  6.0

     total cpu time spent up to now is      817.3 secs

     total energy              =  -11463.72003734 Ry
     estimated scf accuracy    <          2.0E-09 Ry

     iteration # 23     ecut=    80.00 Ry     beta= 0.50
     Davidson diagonalization with overlap
     ethr =  2.36E-13,  avg # of iterations =  4.8

     total cpu time spent up to now is      848.3 secs

     total energy              =  -11463.72003734 Ry
     estimated scf accuracy    <          2.7E-10 Ry

     iteration # 24     ecut=    80.00 Ry     beta= 0.50
     Davidson diagonalization with overlap
     ethr =  1.00E-13,  avg # of iterations =  6.2

     total cpu time spent up to now is      885.3 secs

     total energy              =  -11463.72003734 Ry
     estimated scf accuracy    <          4.7E-10 Ry

     iteration # 25     ecut=    80.00 Ry     beta= 0.50
     Davidson diagonalization with overlap
     ethr =  1.00E-13,  avg # of iterations =  2.4

     total cpu time spent up to now is      911.2 secs

     total energy              =  -11463.72003734 Ry
     estimated scf accuracy    <          2.0E-10 Ry

     iteration # 26     ecut=    80.00 Ry     beta= 0.50
     Davidson diagonalization with overlap
     ethr =  1.00E-13,  avg # of iterations =  2.0

     total cpu time spent up to now is      936.1 secs

     End of self-consistent calculation

          k = 0.2500 0.4330 0.1957 ( 84744 PWs)   bands (ev):

   -59.9613 -59.9613 -59.9590 -59.9588 -59.9588 -59.9587 -59.9542 -59.9539
   -59.9539 -59.9537 -59.9524 -59.9522 -59.9521 -59.9521 -59.9521 -59.9517
   -59.9514 -59.9513 -33.6112 -33.6109 -33.6091 -33.6089 -33.6084 -33.6083
   -33.6083 -33.6082 -33.6081 -33.6080 -33.6079 -33.6079 -33.6079 -33.6078
   -33.6077 -33.6077 -33.6077 -33.6077 -33.6076 -33.6076 -33.6076 -33.6074
   -33.6074 -33.6072 -33.6072 -33.6072 -33.6071 -33.6071 -33.6071 -33.6069
   -33.6069 -33.6069 -33.6068 -33.6067 -33.6066 -33.6065 -33.6064 -33.6064
   -33.6062 -33.6062 -33.6062 -33.6061 -33.6060 -33.6058 -33.6057 -33.6057
   -33.6052 -33.6048 -33.6047 -33.6045 -33.6044 -33.6044 -33.6043 -33.6042
   -33.6042 -33.6042 -33.6040 -33.6040 -33.6038 -33.6037 -33.6037 -33.6035
   -33.6034 -33.6034 -33.6034 -33.6032 -33.6030 -33.6030 -33.6029 -33.6026
   -33.6011 -33.6007 -33.5810 -33.5806 -33.5790 -33.5785 -33.5781 -33.5781
   -33.5780 -33.5779 -33.5778 -33.5777 -33.5776 -33.5776 -33.5775 -33.5775
   -33.5774 -33.5774 -33.5774 -33.5773 -33.5772 -33.5772 -33.5772 -33.5771
   -33.5771 -33.5770 -33.5769 -33.5769 -33.5768 -33.5768 -33.5767 -33.5767
   -33.5765 -33.5765 -33.5765 -33.5764 -33.5764 -33.5764 -33.5763 -33.5763
   -33.5763 -33.5762 -33.5762 -33.5762 -33.5761 -33.5761 -33.5761 -33.5760
   -33.5760 -33.5759 -33.5759 -33.5758 -33.5758 -33.5757 -33.5757 -33.5756
   -33.5756 -33.5755 -33.5754 -33.5754 -33.5753 -33.5753 -33.5752 -33.5751
   -33.5750 -33.5750 -33.5750 -33.5749 -33.5747 -33.5745 -33.5744 -33.5738
   -33.5723 -33.5719 -33.5655 -33.5636 -33.5634 -33.5632 -33.5630 -33.5629
   -33.5629 -33.5624 -33.5621 -33.5620 -33.5620 -33.5619 -33.5617 -33.5617
   -33.5616 -33.5616 -33.5615 -33.5614 -33.5612 -33.5611 -33.5609 -33.5608
   -33.5607 -33.5602 -33.5599 -33.5597 -33.5597 -33.5594 -33.5593 -33.5593
   -33.5593 -33.5592 -33.5592 -33.5591 -33.5587 -33.5567 -24.3118 -24.3116
   -24.3116 -24.3114 -24.3004 -24.3003 -24.2744 -24.2743 -24.2592 -24.2588
   -24.2588 -24.2586 -24.2128 -24.2127 -24.2014 -24.2013 -24.2013 -24.2012
   -24.1787 -24.1784 -24.1784 -24.1782 -24.1757 -24.1755 -24.1705 -24.1703
   -24.1701 -24.1701 -24.1700 -24.1700 -24.1700 -24.1700 -24.1698 -24.1695
   -24.1672 -24.1671 -24.1669 -24.1669 -24.1420 -24.1419 -24.1419 -24.1417
   -24.1376 -24.1374 -24.1374 -24.1371 -24.1171 -24.1170 -24.0963 -24.0961
   -24.0960 -24.0958 -24.0810 -24.0810  -0.7665  -0.4983  -0.3726  -0.3716
    -0.1167  -0.1158   0.3107   0.5387   0.5396   0.5873   0.5884   0.7301
     0.7747   0.7758   0.9089   0.9098   1.0304   1.0755   1.0763   1.0898
     1.0907   1.1558   1.1862   1.1871   1.2469   1.3113   1.3124   1.3270
     1.3389   1.3411   1.3423   1.4359   1.4471   1.4484   1.4729   1.5089
     7.4827   7.5259   7.5265   7.7583   7.8275   7.8282   7.9403   7.9415
     8.0240   8.3120   8.3972   8.4159   8.4170   8.4600   8.5989   8.6208
     8.6214   8.6382   8.6584   8.6590   8.7104   8.7111   8.8375   8.8389
     8.8508   9.0263   9.1687   9.1695   9.2763   9.2775   9.4907   9.4914
     9.5534   9.6281   9.6292   9.6982   9.7283   9.9145   9.9152  10.0047
    10.0053  10.0384  10.0895  10.0909  10.1384  10.1391  10.3265  10.3510
    10.3531  10.4679  10.4693  10.5893  10.6070  10.6107  10.7408  10.8451
    10.8644  10.8657  10.8870  10.8904  10.9500  10.9509  10.9630  10.9637
    11.0293  11.0345  11.0365  11.1327  11.4686  11.4695  11.4744  11.5081
    11.5100  11.6072  11.6082  11.6269  11.6563  11.6577  11.6918  11.6943
    11.7587  11.8833  11.9140  11.9150  11.9989  12.0215  12.0259  12.1964
    12.2112  12.2114  12.2302  12.2340  12.2363  12.2620  12.2623  12.2801
    12.2823  12.2945  12.4090  12.4097  12.4534  12.4538  12.6524  12.6528
    12.8114  12.9380  12.9385  13.0071  13.2925  13.2938  13.2979  13.2988
    13.3077  13.3080  13.3188  13.3196  13.3751  13.3756  13.4355  13.4960
    13.5327  13.5337  13.5963  13.7286  13.7751  13.8435

          k = 0.2500-0.1443 0.1957 ( 84743 PWs)   bands (ev):

   -59.9627 -59.9627 -59.9578 -59.9578 -59.9560 -59.9560 -59.9560 -59.9560
   -59.9536 -59.9535 -59.9535 -59.9535 -59.9529 -59.9528 -59.9511 -59.9511
   -59.9510 -59.9510 -33.6112 -33.6110 -33.6093 -33.6090 -33.6086 -33.6084
   -33.6083 -33.6083 -33.6082 -33.6081 -33.6081 -33.6080 -33.6080 -33.6080
   -33.6079 -33.6079 -33.6078 -33.6077 -33.6076 -33.6076 -33.6075 -33.6075
   -33.6074 -33.6074 -33.6074 -33.6073 -33.6072 -33.6072 -33.6072 -33.6071
   -33.6070 -33.6067 -33.6067 -33.6067 -33.6067 -33.6062 -33.6061 -33.6057
   -33.6057 -33.6057 -33.6056 -33.6055 -33.6052 -33.6051 -33.6050 -33.6050
   -33.6050 -33.6048 -33.6047 -33.6046 -33.6046 -33.6045 -33.6043 -33.6042
   -33.6042 -33.6041 -33.6041 -33.6041 -33.6040 -33.6040 -33.6039 -33.6038
   -33.6036 -33.6036 -33.6035 -33.6035 -33.6031 -33.6031 -33.6030 -33.6027
   -33.6011 -33.6009 -33.5810 -33.5806 -33.5790 -33.5786 -33.5783 -33.5782
   -33.5779 -33.5778 -33.5777 -33.5776 -33.5776 -33.5775 -33.5774 -33.5774
   -33.5773 -33.5773 -33.5773 -33.5772 -33.5772 -33.5772 -33.5771 -33.5771
   -33.5770 -33.5769 -33.5769 -33.5769 -33.5768 -33.5768 -33.5767 -33.5767
   -33.5767 -33.5766 -33.5766 -33.5765 -33.5765 -33.5765 -33.5764 -33.5764
   -33.5763 -33.5763 -33.5763 -33.5762 -33.5762 -33.5761 -33.5761 -33.5761
   -33.5760 -33.5760 -33.5760 -33.5759 -33.5759 -33.5758 -33.5757 -33.5756
   -33.5755 -33.5754 -33.5754 -33.5753 -33.5753 -33.5752 -33.5752 -33.5751
   -33.5750 -33.5749 -33.5748 -33.5748 -33.5746 -33.5745 -33.5744 -33.5738
   -33.5723 -33.5719 -33.5656 -33.5638 -33.5636 -33.5631 -33.5628 -33.5627
   -33.5625 -33.5624 -33.5623 -33.5622 -33.5619 -33.5619 -33.5619 -33.5618
   -33.5617 -33.5616 -33.5615 -33.5615 -33.5614 -33.5610 -33.5607 -33.5606
   -33.5602 -33.5602 -33.5601 -33.5598 -33.5597 -33.5596 -33.5596 -33.5594
   -33.5592 -33.5591 -33.5591 -33.5590 -33.5587 -33.5567 -24.3044 -24.3043
   -24.2823 -24.2820 -24.2820 -24.2817 -24.2779 -24.2775 -24.2775 -24.2771
   -24.2306 -24.2303 -24.2303 -24.2300 -24.2193 -24.2193 -24.2010 -24.2008
   -24.2008 -24.2006 -24.1965 -24.1965 -24.1963 -24.1962 -24.1882 -24.1881
   -24.1881 -24.1881 -24.1767 -24.1766 -24.1766 -24.1766 -24.1736 -24.1735
   -24.1652 -24.1652 -24.1652 -24.1652 -24.1289 -24.1287 -24.1287 -24.1285
   -24.1239 -24.1239 -24.1138 -24.1135 -24.1135 -24.1134 -24.0984 -24.0983
   -24.0860 -24.0859 -24.0727 -24.0726  -0.9768  -0.7043  -0.1899   0.0576
     0.1483   0.1492   0.1887   0.3753   0.3762   0.6322   0.6436   0.6906
     0.6914   0.8379   0.8388   0.8635   0.8644   0.8709   0.9885   1.0162
     1.1328   1.1337   1.1412   1.1424   1.2330   1.3371   1.3378   1.3388
     1.3399   1.3859   1.4019   1.4029   1.4899   1.4912   1.5508   1.5524
     7.2233   7.6279   7.9391   7.9997   7.9999   8.1080   8.2203   8.2205
     8.2235   8.3028   8.3031   8.3593   8.3602   8.3620   8.3622   8.5256
     8.5264   8.6992   8.7002   8.7190   8.8389   8.9006   8.9372   8.9377
     8.9384   8.9391   9.0031   9.0037   9.1791   9.1797   9.3912   9.3919
     9.4813   9.5325   9.5331   9.6186   9.6857   9.6861   9.7390   9.8742
     9.8752  10.0504  10.0507  10.1023  10.1027  10.1176  10.1183  10.1431
    10.1437  10.1492  10.2053  10.2788  10.2791  10.6027  10.7467  10.7529
    10.7534  10.8604  10.8619  10.8786  10.8789  11.0288  11.0297  11.0722
    11.0876  11.0883  11.1888  11.3174  11.3190  11.3915  11.4262  11.6143
    11.6549  11.6568  11.7369  11.8239  11.8387  11.8535  11.8970  11.8978
    11.9492  11.9724  11.9736  11.9819  11.9826  12.0717  12.1927  12.1941
    12.1974  12.2436  12.2443  12.2671  12.2678  12.3506  12.3511  12.3699
    12.3709  12.4681  12.5713  12.5951  12.5963  12.6245  12.6634  12.7304
    12.7384  12.8407  12.9303  12.9646  12.9817  13.0348  13.1083  13.1313
    13.1341  13.1463  13.1500  13.2218  13.2226  13.2240  13.3199  13.3206
    13.6691  13.6696  13.9144  13.9156  13.9288  14.2153

          k =-0.2500-0.4330 0.1957 ( 84744 PWs)   bands (ev):

   -59.9613 -59.9613 -59.9590 -59.9588 -59.9588 -59.9587 -59.9542 -59.9539
   -59.9539 -59.9537 -59.9524 -59.9522 -59.9521 -59.9521 -59.9521 -59.9517
   -59.9514 -59.9513 -33.6112 -33.6109 -33.6091 -33.6089 -33.6084 -33.6083
   -33.6083 -33.6082 -33.6081 -33.6080 -33.6079 -33.6079 -33.6079 -33.6078
   -33.6077 -33.6077 -33.6077 -33.6077 -33.6076 -33.6076 -33.6076 -33.6074
   -33.6074 -33.6072 -33.6072 -33.6072 -33.6071 -33.6071 -33.6071 -33.6069
   -33.6069 -33.6069 -33.6068 -33.6067 -33.6066 -33.6065 -33.6064 -33.6063
   -33.6062 -33.6062 -33.6062 -33.6061 -33.6060 -33.6058 -33.6057 -33.6057
   -33.6052 -33.6048 -33.6047 -33.6045 -33.6044 -33.6044 -33.6043 -33.6042
   -33.6042 -33.6042 -33.6040 -33.6040 -33.6038 -33.6037 -33.6037 -33.6035
   -33.6034 -33.6034 -33.6034 -33.6032 -33.6030 -33.6030 -33.6029 -33.6026
   -33.6011 -33.6007 -33.5810 -33.5806 -33.5790 -33.5785 -33.5781 -33.5781
   -33.5780 -33.5779 -33.5778 -33.5777 -33.5776 -33.5776 -33.5775 -33.5775
   -33.5775 -33.5774 -33.5773 -33.5773 -33.5773 -33.5772 -33.5772 -33.5771
   -33.5771 -33.5770 -33.5769 -33.5769 -33.5768 -33.5768 -33.5767 -33.5766
   -33.5766 -33.5765 -33.5765 -33.5765 -33.5764 -33.5763 -33.5763 -33.5763
   -33.5762 -33.5762 -33.5762 -33.5762 -33.5761 -33.5761 -33.5761 -33.5760
   -33.5760 -33.5760 -33.5759 -33.5758 -33.5758 -33.5757 -33.5756 -33.5756
   -33.5756 -33.5755 -33.5754 -33.5754 -33.5753 -33.5753 -33.5752 -33.5751
   -33.5751 -33.5750 -33.5750 -33.5749 -33.5747 -33.5745 -33.5744 -33.5738
   -33.5723 -33.5719 -33.5655 -33.5636 -33.5635 -33.5632 -33.5630 -33.5629
   -33.5629 -33.5624 -33.5621 -33.5620 -33.5620 -33.5619 -33.5617 -33.5617
   -33.5616 -33.5616 -33.5615 -33.5614 -33.5612 -33.5611 -33.5609 -33.5608
   -33.5607 -33.5602 -33.5599 -33.5597 -33.5597 -33.5594 -33.5593 -33.5593
   -33.5593 -33.5592 -33.5592 -33.5591 -33.5587 -33.5567 -24.3118 -24.3116
   -24.3116 -24.3114 -24.3004 -24.3003 -24.2744 -24.2743 -24.2592 -24.2588
   -24.2588 -24.2586 -24.2128 -24.2127 -24.2014 -24.2013 -24.2013 -24.2012
   -24.1787 -24.1784 -24.1784 -24.1782 -24.1757 -24.1755 -24.1705 -24.1703
   -24.1701 -24.1701 -24.1700 -24.1700 -24.1700 -24.1700 -24.1698 -24.1695
   -24.1672 -24.1671 -24.1669 -24.1669 -24.1420 -24.1419 -24.1419 -24.1417
   -24.1376 -24.1374 -24.1374 -24.1371 -24.1171 -24.1170 -24.0963 -24.0961
   -24.0960 -24.0958 -24.0810 -24.0810  -0.7665  -0.4983  -0.3726  -0.3716
    -0.1167  -0.1158   0.3107   0.5387   0.5396   0.5873   0.5884   0.7301
     0.7747   0.7758   0.9089   0.9098   1.0304   1.0755   1.0762   1.0898
     1.0907   1.1558   1.1862   1.1871   1.2469   1.3113   1.3123   1.3271
     1.3389   1.3411   1.3423   1.4358   1.4471   1.4484   1.4729   1.5089
     7.4827   7.5260   7.5265   7.7583   7.8274   7.8282   7.9403   7.9415
     8.0240   8.3120   8.3972   8.4159   8.4170   8.4600   8.5989   8.6208
     8.6214   8.6382   8.6584   8.6591   8.7104   8.7111   8.8375   8.8389
     8.8508   9.0263   9.1686   9.1696   9.2764   9.2775   9.4907   9.4914
     9.5534   9.6282   9.6292   9.6982   9.7283   9.9146   9.9151  10.0047
    10.0054  10.0384  10.0895  10.0908  10.1383  10.1391  10.3265  10.3512
    10.3529  10.4681  10.4691  10.5893  10.6070  10.6106  10.7408  10.8451
    10.8647  10.8655  10.8870  10.8904  10.9498  10.9511  10.9628  10.9638
    11.0293  11.0345  11.0365  11.1327  11.4686  11.4693  11.4745  11.5079
    11.5101  11.6073  11.6081  11.6269  11.6563  11.6576  11.6919  11.6942
    11.7587  11.8833  11.9139  11.9152  11.9989  12.0216  12.0258  12.1965
    12.2110  12.2116  12.2302  12.2341  12.2363  12.2621  12.2622  12.2801
    12.2823  12.2945  12.4092  12.4095  12.4533  12.4539  12.6523  12.6528
    12.8114  12.9380  12.9385  13.0072  13.2927  13.2935  13.2980  13.2988
    13.3075  13.3082  13.3188  13.3196  13.3750  13.3757  13.4355  13.4960
    13.5327  13.5336  13.5963  13.7286  13.7751  13.8435

          k =-0.2500 0.4330-0.1957 ( 84744 PWs)   bands (ev):

   -59.9613 -59.9613 -59.9590 -59.9588 -59.9588 -59.9586 -59.9541 -59.9539
   -59.9539 -59.9537 -59.9525 -59.9521 -59.9521 -59.9521 -59.9520 -59.9518
   -59.9514 -59.9513 -33.6111 -33.6109 -33.6092 -33.6090 -33.6085 -33.6083
   -33.6082 -33.6082 -33.6080 -33.6080 -33.6079 -33.6079 -33.6078 -33.6077
   -33.6077 -33.6077 -33.6077 -33.6076 -33.6076 -33.6076 -33.6075 -33.6075
   -33.6073 -33.6073 -33.6072 -33.6072 -33.6071 -33.6071 -33.6071 -33.6070
   -33.6069 -33.6068 -33.6067 -33.6067 -33.6066 -33.6065 -33.6064 -33.6063
   -33.6062 -33.6062 -33.6062 -33.6061 -33.6058 -33.6057 -33.6057 -33.6056
   -33.6052 -33.6051 -33.6048 -33.6045 -33.6045 -33.6045 -33.6044 -33.6042
   -33.6042 -33.6041 -33.6040 -33.6040 -33.6038 -33.6037 -33.6036 -33.6035
   -33.6034 -33.6034 -33.6033 -33.6032 -33.6031 -33.6030 -33.6028 -33.6025
   -33.6011 -33.6008 -33.5810 -33.5806 -33.5791 -33.5785 -33.5782 -33.5781
   -33.5779 -33.5779 -33.5777 -33.5777 -33.5776 -33.5776 -33.5776 -33.5775
   -33.5774 -33.5774 -33.5774 -33.5773 -33.5773 -33.5772 -33.5772 -33.5771
   -33.5771 -33.5770 -33.5769 -33.5769 -33.5768 -33.5768 -33.5767 -33.5766
   -33.5766 -33.5765 -33.5765 -33.5764 -33.5764 -33.5763 -33.5763 -33.5763
   -33.5762 -33.5762 -33.5762 -33.5762 -33.5761 -33.5761 -33.5761 -33.5760
   -33.5760 -33.5760 -33.5759 -33.5758 -33.5758 -33.5757 -33.5756 -33.5756
   -33.5755 -33.5755 -33.5754 -33.5754 -33.5753 -33.5753 -33.5752 -33.5752
   -33.5751 -33.5750 -33.5749 -33.5748 -33.5747 -33.5746 -33.5744 -33.5738
   -33.5723 -33.5719 -33.5655 -33.5637 -33.5635 -33.5631 -33.5630 -33.5630
   -33.5628 -33.5624 -33.5621 -33.5620 -33.5620 -33.5619 -33.5617 -33.5617
   -33.5616 -33.5616 -33.5615 -33.5614 -33.5613 -33.5611 -33.5609 -33.5608
   -33.5607 -33.5603 -33.5598 -33.5597 -33.5597 -33.5596 -33.5593 -33.5593
   -33.5593 -33.5592 -33.5591 -33.5590 -33.5587 -33.5567 -24.3120 -24.3116
   -24.3116 -24.3115 -24.3003 -24.3002 -24.2745 -24.2744 -24.2590 -24.2588
   -24.2588 -24.2585 -24.2128 -24.2127 -24.2014 -24.2013 -24.2013 -24.2012
   -24.1787 -24.1784 -24.1784 -24.1782 -24.1755 -24.1755 -24.1705 -24.1703
   -24.1700 -24.1700 -24.1700 -24.1700 -24.1700 -24.1700 -24.1698 -24.1696
   -24.1672 -24.1672 -24.1669 -24.1669 -24.1422 -24.1419 -24.1419 -24.1418
   -24.1376 -24.1374 -24.1374 -24.1370 -24.1172 -24.1171 -24.0963 -24.0961
   -24.0960 -24.0958 -24.0810 -24.0809  -0.7665  -0.4982  -0.3726  -0.3716
    -0.1167  -0.1158   0.3107   0.5388   0.5396   0.5871   0.5882   0.7301
     0.7746   0.7757   0.9090   0.9099   1.0306   1.0757   1.0765   1.0899
     1.0909   1.1558   1.1863   1.1872   1.2466   1.3116   1.3126   1.3269
     1.3387   1.3411   1.3421   1.4361   1.4469   1.4481   1.4726   1.5093
     7.4828   7.5257   7.5263   7.7588   7.8272   7.8278   7.9403   7.9415
     8.0246   8.3118   8.3970   8.4160   8.4170   8.4600   8.5983   8.6211
     8.6217   8.6377   8.6586   8.6593   8.7108   8.7115   8.8375   8.8389
     8.8515   9.0270   9.1686   9.1694   9.2762   9.2775   9.4910   9.4918
     9.5528   9.6276   9.6287   9.6983   9.7280   9.9139   9.9147  10.0045
    10.0052  10.0378  10.0893  10.0907  10.1387  10.1394  10.3258  10.3510
    10.3532  10.4678  10.4692  10.5886  10.6064  10.6106  10.7407  10.8455
    10.8643  10.8655  10.8869  10.8909  10.9505  10.9514  10.9628  10.9636
    11.0301  11.0341  11.0361  11.1325  11.4687  11.4696  11.4742  11.5081
    11.5100  11.6075  11.6085  11.6274  11.6562  11.6576  11.6921  11.6946
    11.7572  11.8832  11.9136  11.9146  11.9983  12.0225  12.0256  12.1980
    12.2112  12.2114  12.2302  12.2341  12.2362  12.2620  12.2623  12.2800
    12.2821  12.2963  12.4093  12.4100  12.4536  12.4540  12.6527  12.6532
    12.8105  12.9378  12.9383  13.0070  13.2929  13.2938  13.2975  13.2982
    13.3076  13.3082  13.3190  13.3199  13.3754  13.3759  13.4353  13.4963
    13.5324  13.5334  13.5962  13.7285  13.7755  13.8428

          k = 0.2500-0.4330-0.1957 ( 84744 PWs)   bands (ev):

   -59.9613 -59.9613 -59.9590 -59.9588 -59.9588 -59.9586 -59.9541 -59.9539
   -59.9539 -59.9537 -59.9525 -59.9521 -59.9521 -59.9521 -59.9520 -59.9518
   -59.9514 -59.9513 -33.6111 -33.6109 -33.6092 -33.6090 -33.6085 -33.6083
   -33.6082 -33.6082 -33.6081 -33.6080 -33.6079 -33.6079 -33.6078 -33.6077
   -33.6077 -33.6077 -33.6077 -33.6076 -33.6076 -33.6076 -33.6075 -33.6075
   -33.6073 -33.6073 -33.6072 -33.6072 -33.6071 -33.6071 -33.6071 -33.6070
   -33.6069 -33.6068 -33.6067 -33.6067 -33.6066 -33.6065 -33.6064 -33.6063
   -33.6062 -33.6062 -33.6062 -33.6061 -33.6058 -33.6057 -33.6057 -33.6056
   -33.6052 -33.6051 -33.6048 -33.6045 -33.6045 -33.6045 -33.6044 -33.6042
   -33.6042 -33.6041 -33.6040 -33.6040 -33.6038 -33.6037 -33.6036 -33.6035
   -33.6034 -33.6034 -33.6033 -33.6032 -33.6031 -33.6030 -33.6028 -33.6025
   -33.6011 -33.6008 -33.5810 -33.5806 -33.5791 -33.5785 -33.5782 -33.5781
   -33.5779 -33.5779 -33.5778 -33.5777 -33.5776 -33.5776 -33.5776 -33.5775
   -33.5774 -33.5774 -33.5773 -33.5773 -33.5773 -33.5772 -33.5772 -33.5771
   -33.5771 -33.5770 -33.5770 -33.5769 -33.5768 -33.5768 -33.5767 -33.5766
   -33.5766 -33.5765 -33.5765 -33.5765 -33.5764 -33.5763 -33.5763 -33.5763
   -33.5763 -33.5762 -33.5762 -33.5762 -33.5761 -33.5761 -33.5761 -33.5760
   -33.5760 -33.5759 -33.5759 -33.5758 -33.5758 -33.5757 -33.5757 -33.5756
   -33.5755 -33.5755 -33.5754 -33.5754 -33.5753 -33.5752 -33.5752 -33.5752
   -33.5751 -33.5749 -33.5749 -33.5748 -33.5747 -33.5746 -33.5744 -33.5738
   -33.5723 -33.5719 -33.5655 -33.5637 -33.5634 -33.5631 -33.5630 -33.5629
   -33.5628 -33.5624 -33.5621 -33.5620 -33.5620 -33.5619 -33.5617 -33.5617
   -33.5616 -33.5616 -33.5615 -33.5614 -33.5612 -33.5610 -33.5609 -33.5608
   -33.5607 -33.5602 -33.5598 -33.5597 -33.5597 -33.5595 -33.5593 -33.5593
   -33.5593 -33.5592 -33.5591 -33.5590 -33.5587 -33.5567 -24.3120 -24.3116
   -24.3116 -24.3115 -24.3003 -24.3002 -24.2745 -24.2744 -24.2590 -24.2588
   -24.2588 -24.2585 -24.2128 -24.2127 -24.2014 -24.2013 -24.2013 -24.2012
   -24.1787 -24.1784 -24.1784 -24.1782 -24.1755 -24.1755 -24.1705 -24.1703
   -24.1700 -24.1700 -24.1700 -24.1700 -24.1700 -24.1700 -24.1698 -24.1696
   -24.1672 -24.1672 -24.1669 -24.1669 -24.1422 -24.1419 -24.1419 -24.1418
   -24.1376 -24.1374 -24.1374 -24.1370 -24.1172 -24.1171 -24.0963 -24.0961
   -24.0960 -24.0958 -24.0810 -24.0809  -0.7665  -0.4982  -0.3726  -0.3716
    -0.1167  -0.1158   0.3107   0.5387   0.5396   0.5871   0.5882   0.7301
     0.7746   0.7757   0.9090   0.9099   1.0306   1.0757   1.0765   1.0899
     1.0909   1.1558   1.1863   1.1872   1.2465   1.3115   1.3125   1.3270
     1.3388   1.3411   1.3421   1.4360   1.4469   1.4481   1.4726   1.5093
     7.4828   7.5257   7.5262   7.7588   7.8271   7.8279   7.9403   7.9415
     8.0246   8.3118   8.3970   8.4160   8.4170   8.4600   8.5983   8.6211
     8.6217   8.6377   8.6586   8.6593   8.7108   8.7115   8.8375   8.8389
     8.8515   9.0270   9.1685   9.1695   9.2763   9.2774   9.4911   9.4917
     9.5528   9.6277   9.6287   9.6983   9.7280   9.9140   9.9146  10.0045
    10.0053  10.0378  10.0894  10.0907  10.1387  10.1395  10.3258  10.3512
    10.3530  10.4680  10.4690  10.5887  10.6064  10.6106  10.7407  10.8455
    10.8645  10.8653  10.8869  10.8909  10.9504  10.9515  10.9626  10.9638
    11.0302  11.0341  11.0361  11.1325  11.4686  11.4696  11.4743  11.5080
    11.5101  11.6076  11.6084  11.6274  11.6562  11.6575  11.6923  11.6945
    11.7572  11.8832  11.9135  11.9147  11.9983  12.0226  12.0254  12.1981
    12.2110  12.2114  12.2302  12.2342  12.2362  12.2621  12.2622  12.2800
    12.2822  12.2963  12.4096  12.4098  12.4535  12.4541  12.6527  12.6532
    12.8105  12.9378  12.9383  13.0070  13.2930  13.2938  13.2974  13.2982
    13.3076  13.3082  13.3191  13.3198  13.3753  13.3760  13.4353  13.4964
    13.5325  13.5333  13.5962  13.7285  13.7755  13.8429

          k = 0.5000-0.0000 0.1957 ( 84744 PWs)   bands (ev):

   -59.9613 -59.9613 -59.9588 -59.9588 -59.9588 -59.9588 -59.9540 -59.9539
   -59.9539 -59.9539 -59.9522 -59.9521 -59.9521 -59.9521 -59.9521 -59.9520
   -59.9514 -59.9513 -33.6112 -33.6109 -33.6092 -33.6088 -33.6085 -33.6083
   -33.6082 -33.6082 -33.6081 -33.6080 -33.6079 -33.6079 -33.6078 -33.6078
   -33.6077 -33.6077 -33.6077 -33.6077 -33.6076 -33.6076 -33.6076 -33.6075
   -33.6074 -33.6072 -33.6072 -33.6072 -33.6071 -33.6071 -33.6071 -33.6069
   -33.6069 -33.6069 -33.6067 -33.6066 -33.6065 -33.6065 -33.6064 -33.6063
   -33.6062 -33.6062 -33.6062 -33.6061 -33.6059 -33.6057 -33.6057 -33.6056
   -33.6052 -33.6050 -33.6048 -33.6045 -33.6045 -33.6044 -33.6044 -33.6042
   -33.6042 -33.6042 -33.6040 -33.6040 -33.6038 -33.6037 -33.6036 -33.6035
   -33.6034 -33.6034 -33.6033 -33.6032 -33.6030 -33.6030 -33.6028 -33.6026
   -33.6011 -33.6008 -33.5810 -33.5806 -33.5790 -33.5785 -33.5782 -33.5781
   -33.5780 -33.5778 -33.5778 -33.5777 -33.5776 -33.5776 -33.5775 -33.5775
   -33.5774 -33.5774 -33.5773 -33.5773 -33.5772 -33.5772 -33.5771 -33.5771
   -33.5771 -33.5770 -33.5770 -33.5769 -33.5768 -33.5768 -33.5767 -33.5766
   -33.5766 -33.5765 -33.5765 -33.5765 -33.5764 -33.5763 -33.5763 -33.5763
   -33.5762 -33.5762 -33.5762 -33.5762 -33.5761 -33.5761 -33.5761 -33.5760
   -33.5760 -33.5760 -33.5759 -33.5758 -33.5758 -33.5757 -33.5757 -33.5756
   -33.5755 -33.5755 -33.5754 -33.5754 -33.5753 -33.5752 -33.5752 -33.5751
   -33.5751 -33.5750 -33.5749 -33.5748 -33.5747 -33.5745 -33.5744 -33.5738
   -33.5723 -33.5719 -33.5655 -33.5636 -33.5634 -33.5632 -33.5630 -33.5630
   -33.5628 -33.5624 -33.5621 -33.5620 -33.5620 -33.5618 -33.5617 -33.5617
   -33.5616 -33.5616 -33.5615 -33.5614 -33.5613 -33.5611 -33.5608 -33.5608
   -33.5607 -33.5603 -33.5599 -33.5597 -33.5597 -33.5595 -33.5593 -33.5593
   -33.5593 -33.5592 -33.5591 -33.5590 -33.5587 -33.5567 -24.3118 -24.3116
   -24.3116 -24.3116 -24.3003 -24.3003 -24.2744 -24.2744 -24.2589 -24.2588
   -24.2588 -24.2588 -24.2128 -24.2127 -24.2013 -24.2013 -24.2013 -24.2013
   -24.1785 -24.1784 -24.1784 -24.1784 -24.1756 -24.1755 -24.1703 -24.1702
   -24.1700 -24.1700 -24.1700 -24.1700 -24.1700 -24.1700 -24.1699 -24.1698
   -24.1672 -24.1672 -24.1669 -24.1669 -24.1420 -24.1419 -24.1419 -24.1418
   -24.1374 -24.1374 -24.1374 -24.1373 -24.1171 -24.1171 -24.0961 -24.0961
   -24.0961 -24.0960 -24.0810 -24.0810  -0.7665  -0.4982  -0.3722  -0.3720
    -0.1163  -0.1162   0.3107   0.5391   0.5392   0.5877   0.5878   0.7301
     0.7752   0.7753   0.9093   0.9095   1.0305   1.0758   1.0762   1.0902
     1.0904   1.1558   1.1866   1.1868   1.2467   1.3119   1.3121   1.3269
     1.3390   1.3414   1.3417   1.4360   1.4474   1.4479   1.4727   1.5091
     7.4828   7.5258   7.5264   7.7586   7.8274   7.8279   7.9408   7.9410
     8.0243   8.3119   8.3971   8.4163   8.4166   8.4600   8.5986   8.6211
     8.6214   8.6379   8.6586   8.6590   8.7106   8.7112   8.8381   8.8383
     8.8512   9.0267   9.1688   9.1693   9.2763   9.2775   9.4908   9.4916
     9.5531   9.6280   9.6288   9.6982   9.7281   9.9142   9.9149  10.0049
    10.0050  10.0381  10.0894  10.0908  10.1386  10.1392  10.3261  10.3512
    10.3529  10.4678  10.4693  10.5889  10.6067  10.6106  10.7408  10.8453
    10.8642  10.8657  10.8869  10.8906  10.9505  10.9509  10.9631  10.9635
    11.0297  11.0350  11.0357  11.1326  11.4688  11.4693  11.4743  11.5086
    11.5095  11.6073  11.6084  11.6272  11.6564  11.6575  11.6924  11.6941
    11.7580  11.8832  11.9139  11.9147  11.9986  12.0219  12.0258  12.1971
    12.2112  12.2115  12.2302  12.2348  12.2356  12.2619  12.2624  12.2811
    12.2811  12.2954  12.4090  12.4100  12.4536  12.4539  12.6527  12.6528
    12.8109  12.9380  12.9383  13.0071  13.2928  13.2938  13.2980  13.2982
    13.3075  13.3081  13.3187  13.3200  13.3754  13.3756  13.4354  13.4962
    13.5328  13.5333  13.5962  13.7285  13.7753  13.8432

          k =-0.5000 0.0000 0.1957 ( 84744 PWs)   bands (ev):

   -59.9613 -59.9613 -59.9588 -59.9588 -59.9588 -59.9588 -59.9540 -59.9539
   -59.9539 -59.9539 -59.9522 -59.9521 -59.9521 -59.9521 -59.9521 -59.9520
   -59.9514 -59.9513 -33.6112 -33.6109 -33.6092 -33.6088 -33.6085 -33.6083
   -33.6082 -33.6082 -33.6081 -33.6080 -33.6079 -33.6079 -33.6078 -33.6078
   -33.6077 -33.6077 -33.6077 -33.6077 -33.6076 -33.6076 -33.6076 -33.6075
   -33.6074 -33.6072 -33.6072 -33.6072 -33.6071 -33.6071 -33.6071 -33.6069
   -33.6069 -33.6069 -33.6067 -33.6066 -33.6065 -33.6065 -33.6064 -33.6064
   -33.6062 -33.6062 -33.6062 -33.6061 -33.6059 -33.6057 -33.6057 -33.6056
   -33.6052 -33.6050 -33.6048 -33.6045 -33.6045 -33.6044 -33.6044 -33.6042
   -33.6042 -33.6042 -33.6040 -33.6040 -33.6038 -33.6037 -33.6036 -33.6035
   -33.6034 -33.6034 -33.6033 -33.6032 -33.6030 -33.6030 -33.6028 -33.6026
   -33.6011 -33.6008 -33.5810 -33.5806 -33.5790 -33.5785 -33.5782 -33.5781
   -33.5780 -33.5778 -33.5778 -33.5777 -33.5776 -33.5776 -33.5775 -33.5775
   -33.5775 -33.5774 -33.5773 -33.5773 -33.5772 -33.5772 -33.5772 -33.5771
   -33.5770 -33.5770 -33.5769 -33.5769 -33.5768 -33.5768 -33.5767 -33.5766
   -33.5766 -33.5765 -33.5765 -33.5765 -33.5764 -33.5763 -33.5763 -33.5763
   -33.5763 -33.5762 -33.5762 -33.5762 -33.5761 -33.5761 -33.5761 -33.5760
   -33.5760 -33.5760 -33.5759 -33.5758 -33.5758 -33.5757 -33.5756 -33.5756
   -33.5756 -33.5755 -33.5754 -33.5754 -33.5753 -33.5753 -33.5752 -33.5751
   -33.5751 -33.5750 -33.5749 -33.5749 -33.5748 -33.5745 -33.5744 -33.5738
   -33.5723 -33.5719 -33.5655 -33.5636 -33.5634 -33.5632 -33.5630 -33.5629
   -33.5628 -33.5624 -33.5621 -33.5620 -33.5620 -33.5618 -33.5617 -33.5617
   -33.5616 -33.5616 -33.5615 -33.5614 -33.5612 -33.5611 -33.5608 -33.5608
   -33.5607 -33.5603 -33.5599 -33.5597 -33.5597 -33.5595 -33.5593 -33.5593
   -33.5593 -33.5592 -33.5591 -33.5590 -33.5587 -33.5567 -24.3118 -24.3116
   -24.3116 -24.3116 -24.3003 -24.3003 -24.2744 -24.2744 -24.2589 -24.2588
   -24.2588 -24.2588 -24.2128 -24.2127 -24.2013 -24.2013 -24.2013 -24.2013
   -24.1785 -24.1784 -24.1784 -24.1784 -24.1756 -24.1755 -24.1703 -24.1702
   -24.1700 -24.1700 -24.1700 -24.1700 -24.1700 -24.1700 -24.1699 -24.1698
   -24.1672 -24.1672 -24.1669 -24.1669 -24.1420 -24.1419 -24.1419 -24.1418
   -24.1374 -24.1374 -24.1374 -24.1373 -24.1171 -24.1171 -24.0961 -24.0961
   -24.0961 -24.0960 -24.0810 -24.0810  -0.7665  -0.4982  -0.3722  -0.3720
    -0.1163  -0.1162   0.3107   0.5391   0.5392   0.5877   0.5878   0.7301
     0.7752   0.7753   0.9093   0.9095   1.0305   1.0757   1.0762   1.0903
     1.0904   1.1558   1.1866   1.1868   1.2467   1.3117   1.3120   1.3271
     1.3391   1.3415   1.3417   1.4359   1.4474   1.4479   1.4727   1.5091
     7.4828   7.5259   7.5263   7.7586   7.8273   7.8280   7.9408   7.9410
     8.0243   8.3119   8.3971   8.4163   8.4166   8.4600   8.5986   8.6210
     8.6215   8.6379   8.6586   8.6590   8.7106   8.7112   8.8381   8.8383
     8.8511   9.0267   9.1685   9.1696   9.2766   9.2772   9.4909   9.4916
     9.5531   9.6281   9.6287   9.6982   9.7281   9.9145   9.9146  10.0048
    10.0052  10.0381  10.0896  10.0906  10.1384  10.1394  10.3261  10.3520
    10.3522  10.4685  10.4685  10.5890  10.6067  10.6106  10.7408  10.8453
    10.8647  10.8652  10.8869  10.8906  10.9501  10.9513  10.9627  10.9639
    11.0298  11.0349  11.0357  11.1326  11.4687  11.4692  11.4745  11.5081
    11.5100  11.6078  11.6079  11.6272  11.6566  11.6573  11.6929  11.6935
    11.7580  11.8832  11.9137  11.9150  11.9986  12.0221  12.0255  12.1974
    12.2109  12.2115  12.2302  12.2351  12.2353  12.2620  12.2623  12.2807
    12.2815  12.2954  12.4094  12.4096  12.4533  12.4541  12.6526  12.6529
    12.8109  12.9381  12.9383  13.0071  13.2930  13.2936  13.2979  13.2982
    13.3075  13.3083  13.3187  13.3199  13.3752  13.3758  13.4354  13.4962
    13.5329  13.5331  13.5962  13.7285  13.7753  13.8432

          k =-0.2500 0.1443 0.1957 ( 84743 PWs)   bands (ev):

   -59.9627 -59.9627 -59.9578 -59.9578 -59.9560 -59.9560 -59.9560 -59.9560
   -59.9536 -59.9535 -59.9535 -59.9535 -59.9529 -59.9528 -59.9511 -59.9511
   -59.9510 -59.9510 -33.6112 -33.6110 -33.6093 -33.6090 -33.6086 -33.6084
   -33.6083 -33.6083 -33.6082 -33.6081 -33.6081 -33.6080 -33.6080 -33.6080
   -33.6079 -33.6079 -33.6078 -33.6077 -33.6076 -33.6076 -33.6075 -33.6075
   -33.6074 -33.6074 -33.6074 -33.6073 -33.6072 -33.6072 -33.6072 -33.6071
   -33.6070 -33.6067 -33.6067 -33.6067 -33.6067 -33.6062 -33.6061 -33.6057
   -33.6057 -33.6057 -33.6056 -33.6055 -33.6052 -33.6051 -33.6050 -33.6050
   -33.6050 -33.6048 -33.6047 -33.6046 -33.6046 -33.6045 -33.6043 -33.6042
   -33.6042 -33.6041 -33.6041 -33.6041 -33.6040 -33.6040 -33.6039 -33.6038
   -33.6036 -33.6036 -33.6035 -33.6035 -33.6031 -33.6031 -33.6030 -33.6027
   -33.6011 -33.6009 -33.5810 -33.5806 -33.5791 -33.5786 -33.5783 -33.5781
   -33.5779 -33.5778 -33.5777 -33.5776 -33.5776 -33.5775 -33.5774 -33.5774
   -33.5773 -33.5773 -33.5773 -33.5773 -33.5772 -33.5772 -33.5771 -33.5771
   -33.5770 -33.5770 -33.5769 -33.5769 -33.5768 -33.5768 -33.5767 -33.5767
   -33.5767 -33.5766 -33.5766 -33.5765 -33.5765 -33.5765 -33.5764 -33.5764
   -33.5764 -33.5763 -33.5763 -33.5762 -33.5762 -33.5761 -33.5761 -33.5761
   -33.5760 -33.5760 -33.5760 -33.5759 -33.5758 -33.5758 -33.5757 -33.5756
   -33.5755 -33.5755 -33.5754 -33.5753 -33.5753 -33.5752 -33.5751 -33.5751
   -33.5750 -33.5749 -33.5748 -33.5748 -33.5746 -33.5745 -33.5744 -33.5738
   -33.5723 -33.5719 -33.5656 -33.5639 -33.5636 -33.5631 -33.5628 -33.5627
   -33.5625 -33.5624 -33.5623 -33.5622 -33.5619 -33.5619 -33.5618 -33.5618
   -33.5617 -33.5616 -33.5615 -33.5615 -33.5614 -33.5610 -33.5607 -33.5605
   -33.5602 -33.5602 -33.5601 -33.5598 -33.5597 -33.5596 -33.5596 -33.5594
   -33.5592 -33.5591 -33.5591 -33.5590 -33.5587 -33.5567 -24.3044 -24.3043
   -24.2823 -24.2820 -24.2820 -24.2817 -24.2779 -24.2775 -24.2775 -24.2771
   -24.2306 -24.2303 -24.2303 -24.2300 -24.2193 -24.2193 -24.2010 -24.2008
   -24.2008 -24.2006 -24.1965 -24.1965 -24.1963 -24.1962 -24.1882 -24.1881
   -24.1881 -24.1881 -24.1767 -24.1766 -24.1766 -24.1766 -24.1736 -24.1735
   -24.1652 -24.1652 -24.1652 -24.1652 -24.1289 -24.1287 -24.1287 -24.1285
   -24.1239 -24.1239 -24.1138 -24.1135 -24.1135 -24.1134 -24.0984 -24.0983
   -24.0860 -24.0859 -24.0727 -24.0726  -0.9768  -0.7043  -0.1899   0.0576
     0.1483   0.1492   0.1887   0.3753   0.3762   0.6323   0.6436   0.6906
     0.6913   0.8380   0.8389   0.8636   0.8645   0.8709   0.9885   1.0162
     1.1327   1.1337   1.1412   1.1424   1.2331   1.3371   1.3378   1.3387
     1.3400   1.3859   1.4019   1.4028   1.4899   1.4912   1.5508   1.5524
     7.2233   7.6281   7.9389   7.9995   7.9996   8.1078   8.2204   8.2207
     8.2235   8.3033   8.3035   8.3596   8.3608   8.3616   8.3617   8.5256
     8.5266   8.6994   8.7002   8.7192   8.8388   8.9013   8.9365   8.9368
     8.9376   8.9383   9.0033   9.0039   9.1784   9.1794   9.3931   9.3938
     9.4812   9.5325   9.5331   9.6190   9.6855   9.6861   9.7370   9.8748
     9.8754  10.0500  10.0503  10.1015  10.1030  10.1173  10.1182  10.1432
    10.1434  10.1494  10.2065  10.2786  10.2791  10.6025  10.7468  10.7531
    10.7537  10.8616  10.8622  10.8786  10.8787  11.0283  11.0289  11.0722
    11.0868  11.0881  11.1888  11.3180  11.3193  11.3914  11.4261  11.6143
    11.6548  11.6569  11.7370  11.8239  11.8387  11.8535  11.8965  11.8976
    11.9490  11.9724  11.9736  11.9822  11.9830  12.0720  12.1921  12.1937
    12.1978  12.2438  12.2452  12.2671  12.2680  12.3503  12.3512  12.3701
    12.3706  12.4682  12.5712  12.5949  12.5962  12.6239  12.6634  12.7306
    12.7383  12.8408  12.9302  12.9646  12.9817  13.0359  13.1074  13.1318
    13.1349  13.1460  13.1489  13.2222  13.2231  13.2242  13.3194  13.3200
    13.6687  13.6697  13.9148  13.9155  13.9288  14.2152

          k =-0.2500-0.1443-0.1957 ( 84743 PWs)   bands (ev):

   -59.9627 -59.9627 -59.9578 -59.9578 -59.9560 -59.9560 -59.9560 -59.9560
   -59.9536 -59.9535 -59.9535 -59.9535 -59.9529 -59.9528 -59.9511 -59.9511
   -59.9510 -59.9510 -33.6112 -33.6109 -33.6092 -33.6089 -33.6086 -33.6085
   -33.6084 -33.6083 -33.6082 -33.6081 -33.6081 -33.6081 -33.6080 -33.6080
   -33.6080 -33.6078 -33.6078 -33.6077 -33.6077 -33.6076 -33.6075 -33.6075
   -33.6074 -33.6074 -33.6074 -33.6073 -33.6072 -33.6072 -33.6072 -33.6071
   -33.6070 -33.6068 -33.6067 -33.6067 -33.6067 -33.6062 -33.6060 -33.6058
   -33.6057 -33.6057 -33.6056 -33.6055 -33.6053 -33.6051 -33.6050 -33.6050
   -33.6049 -33.6048 -33.6046 -33.6046 -33.6045 -33.6044 -33.6043 -33.6042
   -33.6042 -33.6041 -33.6041 -33.6041 -33.6040 -33.6040 -33.6039 -33.6037
   -33.6036 -33.6036 -33.6036 -33.6035 -33.6033 -33.6031 -33.6031 -33.6027
   -33.6012 -33.6008 -33.5810 -33.5806 -33.5790 -33.5786 -33.5783 -33.5781
   -33.5779 -33.5778 -33.5777 -33.5777 -33.5776 -33.5775 -33.5774 -33.5774
   -33.5773 -33.5773 -33.5773 -33.5773 -33.5772 -33.5772 -33.5771 -33.5771
   -33.5770 -33.5770 -33.5769 -33.5769 -33.5768 -33.5768 -33.5767 -33.5767
   -33.5767 -33.5766 -33.5766 -33.5765 -33.5765 -33.5765 -33.5764 -33.5764
   -33.5764 -33.5763 -33.5762 -33.5762 -33.5762 -33.5762 -33.5761 -33.5761
   -33.5760 -33.5760 -33.5760 -33.5759 -33.5758 -33.5757 -33.5757 -33.5756
   -33.5755 -33.5755 -33.5754 -33.5754 -33.5753 -33.5752 -33.5751 -33.5751
   -33.5750 -33.5749 -33.5749 -33.5748 -33.5747 -33.5745 -33.5743 -33.5738
   -33.5723 -33.5719 -33.5656 -33.5638 -33.5636 -33.5631 -33.5629 -33.5627
   -33.5625 -33.5624 -33.5623 -33.5621 -33.5619 -33.5619 -33.5618 -33.5618
   -33.5617 -33.5616 -33.5615 -33.5615 -33.5614 -33.5611 -33.5607 -33.5605
   -33.5602 -33.5602 -33.5601 -33.5599 -33.5596 -33.5596 -33.5595 -33.5594
   -33.5593 -33.5591 -33.5591 -33.5591 -33.5587 -33.5567 -24.3043 -24.3042
   -24.2824 -24.2820 -24.2820 -24.2818 -24.2779 -24.2775 -24.2775 -24.2771
   -24.2307 -24.2303 -24.2303 -24.2301 -24.2193 -24.2193 -24.2010 -24.2008
   -24.2008 -24.2006 -24.1965 -24.1965 -24.1962 -24.1961 -24.1882 -24.1881
   -24.1881 -24.1880 -24.1767 -24.1766 -24.1766 -24.1766 -24.1736 -24.1736
   -24.1652 -24.1652 -24.1652 -24.1652 -24.1289 -24.1287 -24.1287 -24.1285
   -24.1240 -24.1239 -24.1136 -24.1135 -24.1135 -24.1133 -24.0984 -24.0984
   -24.0859 -24.0858 -24.0727 -24.0727  -0.9768  -0.7043  -0.1900   0.0575
     0.1484   0.1493   0.1887   0.3754   0.3764   0.6323   0.6438   0.6906
     0.6915   0.8378   0.8387   0.8637   0.8644   0.8706   0.9887   1.0159
     1.1324   1.1335   1.1411   1.1422   1.2334   1.3367   1.3381   1.3391
     1.3395   1.3864   1.4019   1.4029   1.4899   1.4912   1.5508   1.5523
     7.2233   7.6285   7.9395   7.9993   7.9995   8.1075   8.2203   8.2205
     8.2235   8.3030   8.3033   8.3597   8.3607   8.3616   8.3619   8.5257
     8.5265   8.6992   8.7003   8.7189   8.8383   8.9013   8.9362   8.9370
     8.9377   8.9382   9.0034   9.0040   9.1787   9.1792   9.3930   9.3937
     9.4806   9.5326   9.5332   9.6190   9.6858   9.6861   9.7372   9.8750
     9.8759  10.0500  10.0503  10.1023  10.1027  10.1178  10.1184  10.1434
    10.1440  10.1485  10.2068  10.2789  10.2792  10.6031  10.7470  10.7531
    10.7537  10.8620  10.8635  10.8782  10.8786  11.0284  11.0292  11.0712
    11.0879  11.0886  11.1877  11.3179  11.3194  11.3909  11.4256  11.6149
    11.6549  11.6569  11.7356  11.8245  11.8373  11.8540  11.8962  11.8970
    11.9502  11.9720  11.9732  11.9818  11.9826  12.0716  12.1922  12.1936
    12.1987  12.2443  12.2451  12.2662  12.2669  12.3496  12.3501  12.3704
    12.3714  12.4685  12.5715  12.5952  12.5964  12.6241  12.6612  12.7317
    12.7360  12.8427  12.9309  12.9644  12.9828  13.0369  13.1085  13.1309
    13.1341  13.1448  13.1479  13.2229  13.2233  13.2244  13.3193  13.3201
    13.6690  13.6694  13.9144  13.9156  13.9290  14.2155

          k = 0.2500 0.1443-0.1957 ( 84743 PWs)   bands (ev):

   -59.9627 -59.9627 -59.9578 -59.9578 -59.9560 -59.9560 -59.9560 -59.9560
   -59.9536 -59.9535 -59.9535 -59.9535 -59.9529 -59.9528 -59.9511 -59.9511
   -59.9510 -59.9510 -33.6112 -33.6109 -33.6092 -33.6089 -33.6086 -33.6085
   -33.6084 -33.6083 -33.6082 -33.6081 -33.6081 -33.6080 -33.6080 -33.6080
   -33.6080 -33.6078 -33.6078 -33.6077 -33.6077 -33.6076 -33.6075 -33.6075
   -33.6075 -33.6074 -33.6074 -33.6073 -33.6072 -33.6072 -33.6072 -33.6072
   -33.6070 -33.6068 -33.6067 -33.6067 -33.6067 -33.6062 -33.6060 -33.6058
   -33.6057 -33.6057 -33.6056 -33.6055 -33.6053 -33.6051 -33.6050 -33.6050
   -33.6049 -33.6048 -33.6046 -33.6046 -33.6045 -33.6044 -33.6043 -33.6042
   -33.6042 -33.6041 -33.6041 -33.6041 -33.6040 -33.6040 -33.6039 -33.6037
   -33.6036 -33.6036 -33.6036 -33.6035 -33.6033 -33.6031 -33.6031 -33.6027
   -33.6012 -33.6008 -33.5810 -33.5806 -33.5790 -33.5786 -33.5783 -33.5782
   -33.5779 -33.5778 -33.5777 -33.5777 -33.5776 -33.5775 -33.5774 -33.5774
   -33.5773 -33.5773 -33.5773 -33.5773 -33.5772 -33.5772 -33.5771 -33.5771
   -33.5770 -33.5770 -33.5769 -33.5769 -33.5769 -33.5768 -33.5767 -33.5767
   -33.5767 -33.5766 -33.5766 -33.5765 -33.5765 -33.5764 -33.5764 -33.5764
   -33.5763 -33.5763 -33.5762 -33.5762 -33.5762 -33.5761 -33.5761 -33.5761
   -33.5760 -33.5760 -33.5760 -33.5759 -33.5758 -33.5757 -33.5757 -33.5756
   -33.5755 -33.5755 -33.5754 -33.5754 -33.5753 -33.5752 -33.5751 -33.5751
   -33.5750 -33.5749 -33.5749 -33.5748 -33.5747 -33.5745 -33.5743 -33.5738
   -33.5723 -33.5719 -33.5656 -33.5638 -33.5636 -33.5631 -33.5629 -33.5627
   -33.5625 -33.5624 -33.5623 -33.5621 -33.5619 -33.5619 -33.5618 -33.5618
   -33.5617 -33.5616 -33.5615 -33.5615 -33.5614 -33.5610 -33.5607 -33.5606
   -33.5602 -33.5602 -33.5601 -33.5599 -33.5596 -33.5596 -33.5595 -33.5594
   -33.5592 -33.5591 -33.5591 -33.5591 -33.5587 -33.5567 -24.3043 -24.3042
   -24.2824 -24.2820 -24.2820 -24.2818 -24.2779 -24.2775 -24.2775 -24.2771
   -24.2307 -24.2303 -24.2303 -24.2301 -24.2193 -24.2193 -24.2010 -24.2008
   -24.2008 -24.2006 -24.1965 -24.1965 -24.1962 -24.1961 -24.1882 -24.1881
   -24.1881 -24.1880 -24.1767 -24.1766 -24.1766 -24.1766 -24.1736 -24.1736
   -24.1652 -24.1652 -24.1652 -24.1652 -24.1289 -24.1287 -24.1287 -24.1285
   -24.1240 -24.1239 -24.1136 -24.1135 -24.1135 -24.1133 -24.0984 -24.0984
   -24.0859 -24.0858 -24.0727 -24.0727  -0.9768  -0.7043  -0.1900   0.0575
     0.1484   0.1493   0.1887   0.3755   0.3764   0.6323   0.6438   0.6907
     0.6915   0.8378   0.8387   0.8636   0.8645   0.8705   0.9887   1.0160
     1.1324   1.1335   1.1412   1.1423   1.2333   1.3366   1.3381   1.3391
     1.3395   1.3864   1.4019   1.4029   1.4899   1.4912   1.5508   1.5523
     7.2233   7.6284   7.9397   7.9996   7.9997   8.1077   8.2201   8.2204
     8.2235   8.3026   8.3029   8.3594   8.3606   8.3618   8.3620   8.5255
     8.5265   8.6993   8.7001   8.7187   8.8384   8.9005   8.9371   8.9378
     8.9385   8.9388   9.0032   9.0038   9.1790   9.1800   9.3911   9.3918
     9.4806   9.5326   9.5333   9.6186   9.6857   9.6863   9.7391   9.8748
     9.8754  10.0503  10.0506  10.1020  10.1034  10.1179  10.1187  10.1436
    10.1438  10.1485  10.2056  10.2789  10.2794  10.6032  10.7471  10.7528
    10.7534  10.8617  10.8623  10.8785  10.8786  11.0291  11.0297  11.0712
    11.0881  11.0894  11.1877  11.3175  11.3188  11.3909  11.4256  11.6149
    11.6548  11.6570  11.7356  11.8245  11.8374  11.8541  11.8965  11.8974
    11.9503  11.9719  11.9733  11.9816  11.9823  12.0713  12.1926  12.1935
    12.1991  12.2434  12.2448  12.2660  12.2669  12.3494  12.3503  12.3708
    12.3713  12.4684  12.5716  12.5954  12.5966  12.6247  12.6611  12.7315
    12.7361  12.8426  12.9311  12.9644  12.9829  13.0358  13.1093  13.1302
    13.1336  13.1457  13.1481  13.2222  13.2231  13.2241  13.3199  13.3206
    13.6688  13.6698  13.9146  13.9153  13.9288  14.2156

          k = 0.0000-0.2887 0.1957 ( 84743 PWs)   bands (ev):

   -59.9627 -59.9627 -59.9578 -59.9578 -59.9560 -59.9560 -59.9560 -59.9560
   -59.9536 -59.9535 -59.9535 -59.9535 -59.9529 -59.9528 -59.9511 -59.9511
   -59.9510 -59.9510 -33.6112 -33.6110 -33.6093 -33.6090 -33.6085 -33.6085
   -33.6084 -33.6083 -33.6082 -33.6081 -33.6081 -33.6080 -33.6080 -33.6080
   -33.6079 -33.6078 -33.6078 -33.6077 -33.6077 -33.6076 -33.6075 -33.6075
   -33.6074 -33.6074 -33.6074 -33.6073 -33.6072 -33.6072 -33.6072 -33.6072
   -33.6070 -33.6068 -33.6067 -33.6067 -33.6067 -33.6062 -33.6060 -33.6058
   -33.6057 -33.6057 -33.6056 -33.6055 -33.6053 -33.6051 -33.6050 -33.6050
   -33.6050 -33.6048 -33.6047 -33.6046 -33.6045 -33.6044 -33.6043 -33.6042
   -33.6042 -33.6041 -33.6041 -33.6040 -33.6040 -33.6040 -33.6039 -33.6037
   -33.6036 -33.6036 -33.6036 -33.6035 -33.6033 -33.6031 -33.6030 -33.6027
   -33.6012 -33.6009 -33.5810 -33.5806 -33.5791 -33.5786 -33.5783 -33.5782
   -33.5779 -33.5778 -33.5777 -33.5776 -33.5776 -33.5775 -33.5775 -33.5774
   -33.5773 -33.5773 -33.5773 -33.5773 -33.5772 -33.5772 -33.5771 -33.5771
   -33.5770 -33.5770 -33.5769 -33.5769 -33.5768 -33.5768 -33.5767 -33.5767
   -33.5766 -33.5766 -33.5766 -33.5765 -33.5765 -33.5764 -33.5764 -33.5764
   -33.5763 -33.5763 -33.5763 -33.5762 -33.5762 -33.5762 -33.5761 -33.5761
   -33.5760 -33.5760 -33.5760 -33.5759 -33.5758 -33.5757 -33.5757 -33.5756
   -33.5755 -33.5755 -33.5754 -33.5754 -33.5753 -33.5752 -33.5752 -33.5751
   -33.5750 -33.5749 -33.5749 -33.5748 -33.5746 -33.5745 -33.5743 -33.5738
   -33.5723 -33.5719 -33.5656 -33.5638 -33.5636 -33.5631 -33.5628 -33.5627
   -33.5625 -33.5624 -33.5623 -33.5622 -33.5620 -33.5619 -33.5619 -33.5618
   -33.5617 -33.5616 -33.5615 -33.5615 -33.5614 -33.5610 -33.5608 -33.5605
   -33.5602 -33.5602 -33.5601 -33.5598 -33.5596 -33.5596 -33.5595 -33.5594
   -33.5593 -33.5591 -33.5591 -33.5590 -33.5587 -33.5567 -24.3043 -24.3043
   -24.2824 -24.2820 -24.2820 -24.2816 -24.2780 -24.2775 -24.2775 -24.2770
   -24.2307 -24.2303 -24.2303 -24.2299 -24.2193 -24.2193 -24.2012 -24.2008
   -24.2008 -24.2004 -24.1965 -24.1965 -24.1962 -24.1962 -24.1882 -24.1881
   -24.1881 -24.1880 -24.1767 -24.1766 -24.1766 -24.1766 -24.1736 -24.1735
   -24.1652 -24.1652 -24.1652 -24.1652 -24.1289 -24.1287 -24.1287 -24.1284
   -24.1239 -24.1239 -24.1136 -24.1135 -24.1135 -24.1135 -24.0984 -24.0983
   -24.0859 -24.0859 -24.0727 -24.0726  -0.9768  -0.7043  -0.1900   0.0575
     0.1482   0.1494   0.1887   0.3752   0.3765   0.6323   0.6437   0.6905
     0.6915   0.8379   0.8387   0.8635   0.8646   0.8707   0.9886   1.0161
     1.1327   1.1335   1.1412   1.1423   1.2332   1.3369   1.3379   1.3390
     1.3397   1.3861   1.4019   1.4029   1.4899   1.4912   1.5508   1.5523
     7.2233   7.6283   7.9392   7.9993   7.9996   8.1076   8.2203   8.2207
     8.2235   8.3031   8.3035   8.3594   8.3611   8.3616   8.3618   8.5256
     8.5267   8.6992   8.7003   8.7191   8.8385   8.9013   8.9361   8.9370
     8.9377   8.9383   9.0032   9.0041   9.1787   9.1791   9.3930   9.3938
     9.4809   9.5322   9.5334   9.6190   9.6855   9.6862   9.7371   9.8747
     9.8758  10.0499  10.0504  10.1020  10.1027  10.1172  10.1185  10.1432
    10.1437  10.1489  10.2067  10.2786  10.2793  10.6028  10.7469  10.7530
    10.7538  10.8618  10.8627  10.8784  10.8786  11.0282  11.0292  11.0717
    11.0875  11.0882  11.1883  11.3177  11.3196  11.3911  11.4258  11.6146
    11.6549  11.6569  11.7363  11.8242  11.8380  11.8538  11.8963  11.8973
    11.9496  11.9722  11.9734  11.9818  11.9831  12.0718  12.1925  12.1934
    12.1982  12.2442  12.2450  12.2665  12.2676  12.3497  12.3508  12.3702
    12.3711  12.4684  12.5713  12.5951  12.5962  12.6240  12.6623  12.7312
    12.7372  12.8418  12.9305  12.9644  12.9823  13.0364  13.1079  13.1319
    13.1342  13.1457  13.1478  13.2219  13.2232  13.2250  13.3191  13.3204
    13.6688  13.6697  13.9145  13.9156  13.9289  14.2154

          k = 0.0000 0.2887 0.1957 ( 84743 PWs)   bands (ev):

   -59.9627 -59.9627 -59.9578 -59.9578 -59.9560 -59.9560 -59.9560 -59.9560
   -59.9536 -59.9535 -59.9535 -59.9535 -59.9529 -59.9528 -59.9511 -59.9511
   -59.9510 -59.9510 -33.6112 -33.6110 -33.6093 -33.6090 -33.6085 -33.6085
   -33.6084 -33.6083 -33.6082 -33.6081 -33.6081 -33.6080 -33.6080 -33.6080
   -33.6079 -33.6078 -33.6078 -33.6077 -33.6077 -33.6076 -33.6075 -33.6075
   -33.6074 -33.6074 -33.6074 -33.6073 -33.6072 -33.6072 -33.6072 -33.6072
   -33.6070 -33.6068 -33.6067 -33.6067 -33.6067 -33.6062 -33.6060 -33.6058
   -33.6057 -33.6057 -33.6056 -33.6055 -33.6053 -33.6051 -33.6050 -33.6050
   -33.6050 -33.6048 -33.6047 -33.6046 -33.6045 -33.6044 -33.6043 -33.6042
   -33.6042 -33.6041 -33.6041 -33.6040 -33.6040 -33.6040 -33.6039 -33.6037
   -33.6036 -33.6036 -33.6036 -33.6035 -33.6033 -33.6031 -33.6030 -33.6027
   -33.6012 -33.6009 -33.5810 -33.5806 -33.5791 -33.5786 -33.5783 -33.5781
   -33.5779 -33.5778 -33.5777 -33.5777 -33.5776 -33.5775 -33.5774 -33.5774
   -33.5774 -33.5773 -33.5773 -33.5773 -33.5772 -33.5772 -33.5771 -33.5771
   -33.5770 -33.5770 -33.5769 -33.5769 -33.5769 -33.5768 -33.5767 -33.5767
   -33.5766 -33.5766 -33.5766 -33.5765 -33.5765 -33.5765 -33.5764 -33.5764
   -33.5763 -33.5763 -33.5763 -33.5762 -33.5762 -33.5761 -33.5761 -33.5761
   -33.5760 -33.5760 -33.5760 -33.5759 -33.5758 -33.5758 -33.5757 -33.5756
   -33.5755 -33.5755 -33.5754 -33.5754 -33.5753 -33.5753 -33.5752 -33.5751
   -33.5750 -33.5749 -33.5749 -33.5748 -33.5746 -33.5745 -33.5743 -33.5738
   -33.5723 -33.5719 -33.5656 -33.5639 -33.5636 -33.5631 -33.5628 -33.5627
   -33.5625 -33.5624 -33.5623 -33.5622 -33.5619 -33.5619 -33.5619 -33.5618
   -33.5617 -33.5616 -33.5615 -33.5615 -33.5614 -33.5610 -33.5608 -33.5605
   -33.5602 -33.5602 -33.5601 -33.5598 -33.5596 -33.5596 -33.5595 -33.5594
   -33.5593 -33.5591 -33.5591 -33.5590 -33.5587 -33.5567 -24.3043 -24.3043
   -24.2824 -24.2820 -24.2820 -24.2816 -24.2780 -24.2775 -24.2775 -24.2770
   -24.2307 -24.2303 -24.2303 -24.2299 -24.2193 -24.2193 -24.2012 -24.2008
   -24.2008 -24.2004 -24.1965 -24.1965 -24.1962 -24.1962 -24.1882 -24.1881
   -24.1881 -24.1880 -24.1767 -24.1766 -24.1766 -24.1766 -24.1736 -24.1735
   -24.1652 -24.1652 -24.1652 -24.1652 -24.1289 -24.1287 -24.1287 -24.1284
   -24.1239 -24.1239 -24.1136 -24.1135 -24.1135 -24.1135 -24.0984 -24.0983
   -24.0859 -24.0859 -24.0727 -24.0726  -0.9768  -0.7043  -0.1900   0.0575
     0.1482   0.1494   0.1887   0.3752   0.3765   0.6323   0.6437   0.6905
     0.6916   0.8379   0.8387   0.8635   0.8645   0.8707   0.9886   1.0161
     1.1327   1.1335   1.1412   1.1423   1.2332   1.3369   1.3378   1.3390
     1.3397   1.3862   1.4019   1.4029   1.4899   1.4912   1.5508   1.5524
     7.2233   7.6282   7.9394   7.9996   7.9999   8.1078   8.2201   8.2205
     8.2235   8.3027   8.3031   8.3591   8.3607   8.3618   8.3622   8.5255
     8.5265   8.6992   8.7003   8.7189   8.8387   8.9006   8.9371   8.9377
     8.9383   8.9392   9.0030   9.0039   9.1793   9.1797   9.3911   9.3919
     9.4810   9.5323   9.5335   9.6186   9.6856   9.6863   9.7390   9.8743
     9.8754  10.0502  10.0508  10.1022  10.1030  10.1175  10.1188  10.1433
    10.1438  10.1488  10.2055  10.2787  10.2794  10.6030  10.7469  10.7527
    10.7535  10.8611  10.8621  10.8785  10.8788  11.0288  11.0298  11.0717
    11.0880  11.0887  11.1883  11.3172  11.3191  11.3912  11.4259  11.6146
    11.6549  11.6569  11.7363  11.8242  11.8380  11.8538  11.8967  11.8977
    11.9498  11.9721  11.9735  11.9815  11.9827  12.0715  12.1928  12.1937
    12.1982  12.2436  12.2444  12.2664  12.2674  12.3498  12.3509  12.3703
    12.3711  12.4683  12.5714  12.5953  12.5964  12.6246  12.6623  12.7310
    12.7372  12.8416  12.9307  12.9644  12.9824  13.0353  13.1088  13.1313
    13.1336  13.1464  13.1484  13.2214  13.2229  13.2246  13.3196  13.3209
    13.6689  13.6698  13.9143  13.9156  13.9288  14.2154

     highest occupied level (ev):    14.2156

!    total energy              =  -11463.72003734 Ry
     estimated scf accuracy    <          6.9E-11 Ry

     The total energy is the sum of the following terms:
     one-electron contribution =   -5079.13652593 Ry
     hartree contribution      =    2842.48214176 Ry
     xc contribution           =   -2342.62141808 Ry
     ewald contribution        =   -6882.43585964 Ry
     Dispersion Correction     =      -2.00837545 Ry

     convergence has been achieved in  26 iterations

     Forces acting on atoms (cartesian axes, Ry/au):

     atom    1 type  1   force =    -0.00520242    0.00001587   -0.00852180
     atom    2 type  1   force =     0.00003771   -0.00024900   -0.00016151
     atom    3 type  1   force =     0.00002938    0.00024694   -0.00016377
     atom    4 type  1   force =     0.00005819   -0.00023140   -0.00016520
     atom    5 type  1   force =     0.00006164    0.00023401   -0.00016011
     atom    6 type  1   force =     0.00006340    0.00000008    0.00000482
     atom    7 type  1   force =     0.00006101    0.00026095   -0.00016393
     atom    8 type  1   force =     0.00006335    0.00000039    0.00000494
     atom    9 type  1   force =     0.00005888   -0.00026525   -0.00016131
     atom   10 type  1   force =     0.00000254    0.00000204    0.00000304
     atom   11 type  1   force =    -0.00000409   -0.00000014    0.00001633
     atom   12 type  1   force =     0.00000276   -0.00000272    0.00000253
     atom   13 type  1   force =     0.00000684    0.00000019    0.00000254
     atom   14 type  1   force =     0.00000385    0.00000568    0.00001359
     atom   15 type  1   force =     0.00000370   -0.00000520    0.00001365
     atom   16 type  1   force =     0.00000492    0.00000557    0.00001599
     atom   17 type  1   force =     0.00000529   -0.00000489    0.00001622
     atom   18 type  1   force =    -0.00000566    0.00000027    0.00001352
     atom   19 type  2   force =     0.00001377   -0.00000053    0.00091198
     atom   20 type  2   force =     0.00000622    0.00001073    0.00097018
     atom   21 type  2   force =     0.00000032    0.00000535    0.00096583
     atom   22 type  2   force =    -0.00000420   -0.00000293    0.00097077
     atom   23 type  2   force =     0.00001344    0.00000010    0.00096497
     atom   24 type  2   force =    -0.00000539    0.00000025    0.00095053
     atom   25 type  2   force =    -0.00000563   -0.00000618    0.00097345
     atom   26 type  2   force =    -0.00000115    0.00000006    0.00095503
     atom   27 type  2   force =     0.00000622   -0.00000730    0.00096331
     atom   28 type  2   force =     0.00211848   -0.00107257    0.00140620
     atom   29 type  2   force =     0.00001965    0.00000315   -0.00091421
     atom   30 type  2   force =     0.00001650   -0.00014243   -0.00037356
     atom   31 type  2   force =     0.00026267    0.00120708    0.00050844
     atom   32 type  2   force =     0.00005932    0.00008850   -0.00085249
     atom   33 type  2   force =    -0.00001346   -0.00004656   -0.00092695
     atom   34 type  2   force =     0.00001156   -0.00000393   -0.00092125
     atom   35 type  2   force =     0.00001693    0.00000135   -0.00090748
     atom   36 type  2   force =    -0.00009322   -0.00004128   -0.00088997
     atom   37 type  2   force =     0.00001352    0.00014440    0.00148384
     atom   38 type  2   force =     0.00001826   -0.00000277    0.00094303
     atom   39 type  2   force =     0.00203125    0.00101934    0.00317253
     atom   40 type  2   force =     0.00026543   -0.00117096    0.00233546
     atom   41 type  2   force =    -0.00001477    0.00004623    0.00093017
     atom   42 type  2   force =     0.00005636   -0.00008737    0.00100433
     atom   43 type  2   force =     0.00001589   -0.00000057    0.00095130
     atom   44 type  2   force =     0.00001101    0.00000404    0.00093504
     atom   45 type  2   force =    -0.00009400    0.00004182    0.00096746
     atom   46 type  2   force =     0.00001346   -0.00000049   -0.00094588
     atom   47 type  2   force =    -0.00000011   -0.00000588   -0.00089115
     atom   48 type  2   force =     0.00000689   -0.00001126   -0.00088642
     atom   49 type  2   force =     0.00001353   -0.00000034   -0.00089147
     atom   50 type  2   force =    -0.00000411    0.00000281   -0.00088584
     atom   51 type  2   force =    -0.00000539    0.00000018   -0.00090652
     atom   52 type  2   force =     0.00000563    0.00000779   -0.00089425
     atom   53 type  2   force =    -0.00000122    0.00000009   -0.00090201
     atom   54 type  2   force =    -0.00000492    0.00000666   -0.00088395

     Total force =     0.012653     Total SCF correction =     0.000051


     Computing stress (Cartesian axis) and pressure

          total   stress  (Ry/bohr**3)                   (kbar)     P=       39.79
   0.00032074  -0.00000053   0.00000003           47.18       -0.08        0.00
  -0.00000053   0.00032074  -0.00000000           -0.08       47.18       -0.00
   0.00000003  -0.00000000   0.00016997            0.00       -0.00       25.00


     Writing all to output data dir ./WSe.save/ :
     XML data file, charge density, pseudopotentials, collected wavefunctions
 
     init_run     :      9.53s CPU     11.34s WALL (       1 calls)
     electrons    :    766.11s CPU    924.23s WALL (       1 calls)
     forces       :      7.22s CPU      7.91s WALL (       1 calls)
     force_london :      0.04s CPU      0.04s WALL (       1 calls)
     stress       :    108.23s CPU    115.71s WALL (       1 calls)
     stres_london :      0.04s CPU      0.04s WALL (       1 calls)

     Called by init_run:
     wfcinit      :      8.95s CPU     10.61s WALL (       1 calls)
     potinit      :      0.06s CPU      0.08s WALL (       1 calls)
     hinit0       :      0.16s CPU      0.22s WALL (       1 calls)

     Called by electrons:
     c_bands      :    721.90s CPU    872.64s WALL (      27 calls)
     sum_band     :     42.00s CPU     48.15s WALL (      27 calls)
     v_of_rho     :      1.48s CPU      1.68s WALL (      27 calls)
     mix_rho      :      0.58s CPU      0.67s WALL (      27 calls)
     energy_londo :      0.05s CPU      0.05s WALL (       1 calls)

     Called by c_bands:
     init_us_2    :      9.02s CPU      9.14s WALL (     171 calls)
     init_us_2:cp :      9.01s CPU      9.13s WALL (     171 calls)
     cegterg      :    688.34s CPU    826.73s WALL (      81 calls)

     Called by *egterg:
     cdiaghg      :     45.23s CPU    114.13s WALL (     451 calls)
     h_psi        :    395.96s CPU    433.94s WALL (     457 calls)
     g_psi        :      1.58s CPU      1.62s WALL (     373 calls)

     Called by h_psi:
     h_psi:calbec :    103.41s CPU    110.52s WALL (     457 calls)
     vloc_psi     :    197.36s CPU    226.84s WALL (     457 calls)
     add_vuspsi   :     91.51s CPU     92.16s WALL (     457 calls)

     General routines
     calbec       :    110.22s CPU    119.89s WALL (     472 calls)
     fft          :      1.01s CPU      1.23s WALL (     295 calls)
     ffts         :      0.07s CPU      0.09s WALL (      27 calls)
     fftw         :    214.06s CPU    245.59s WALL (  209314 calls)
 
     Parallel routines
     fft_scatt_xy :     22.24s CPU     25.08s WALL (  209636 calls)
     fft_scatt_yz :    121.63s CPU    142.13s WALL (  209636 calls)
 
     PWSCF        :  14m53.23s CPU  17m50.26s WALL

 
   This run was terminated on:  17:26:35   5Nov2024            

=------------------------------------------------------------------------------=
   JOB DONE.
=------------------------------------------------------------------------------=
