54   
3    

1    
  0.0123263299851592   0.0000000000000000   0.0157499710824168
  -0.0047400100    0.0000151894   -0.0072004798
   0.0000761900   -0.0002131306   -0.0002199798
   0.0000762200    0.0002114294   -0.0002217598
   0.0000585100   -0.0002210706   -0.0002231798
   0.0000604900    0.0002223594   -0.0002185498
   0.0000575900   -0.0000004406    0.0000248102
   0.0000607600    0.0002007294   -0.0002224298
   0.0000572900    0.0000002094    0.0000248002
   0.0000585600   -0.0002042206   -0.0002193798
   0.0000002400    0.0000022094    0.0000004702
  -0.0000006000    0.0000001694    0.0000047102
   0.0000003600   -0.0000020806   -0.0000000098
   0.0000041100   -0.0000000506    0.0000004002
   0.0000005900    0.0000025794    0.0000107202
   0.0000005200   -0.0000022906    0.0000105602
   0.0000030400    0.0000021294    0.0000047402
   0.0000031100   -0.0000020806    0.0000047102
  -0.0000036000    0.0000000394    0.0000104802
   0.0000049700   -0.0000001506    0.0003848502
   0.0000009500    0.0000061194    0.0004171602
   0.0000015400    0.0000024294    0.0004149502
  -0.0000015800   -0.0000026306    0.0004181202
   0.0000057300   -0.0000022506    0.0004139902
  -0.0000022500   -0.0000000106    0.0004075402
  -0.0000039700   -0.0000020506    0.0004193002
  -0.0000003700    0.0000000394    0.0004117902
   0.0000038700   -0.0000018406    0.0004129702
   0.0018290900   -0.0008906606    0.0016367802
   0.0000101100   -0.0000011706   -0.0003585398
   0.0000689500   -0.0001259406    0.0001589202
   0.0002867500    0.0010100494    0.0008909602
   0.0000489000    0.0000766194   -0.0003338898
  -0.0000297400   -0.0000307806   -0.0003656498
   0.0000091100   -0.0000005506   -0.0003723198
   0.0000067500    0.0000019494   -0.0003453598
  -0.0000834300   -0.0000453306   -0.0003499798
   0.0000662900    0.0001283394    0.0009857702
   0.0000087500    0.0000016494    0.0004678802
   0.0017526800    0.0008453094    0.0023894202
   0.0002884100   -0.0009794206    0.0016939702
  -0.0000307900    0.0000310494    0.0004608802
   0.0000469600   -0.0000756606    0.0004926902
   0.0000059700   -0.0000016406    0.0004827602
   0.0000084100    0.0000002694    0.0004533102
  -0.0000844000    0.0000448994    0.0004768402
   0.0000048500   -0.0000001906   -0.0004415598
   0.0000015500   -0.0000026406   -0.0004111698
   0.0000011100   -0.0000064006   -0.0004089798
   0.0000058800    0.0000022594   -0.0004121098
  -0.0000015000    0.0000027394   -0.0004079598
  -0.0000024100    0.0000000294   -0.0004187798
   0.0000039000    0.0000019194   -0.0004134598
  -0.0000003900   -0.0000000706   -0.0004146998
  -0.0000040200    0.0000020394   -0.0004070298

19   
  0.0123263299851592   0.0000000000000000   0.0157499710824168
   0.0000048294   -0.0000001602   -0.0000284998
  -0.0000003106   -0.0000049202    0.0000032802
   0.0000026794   -0.0000036102    0.0000026702
   0.0000041594    0.0000016298   -0.0000002298
  -0.0000044306   -0.0000004002    0.0000058402
  -0.0000003706   -0.0000001902   -0.0000015898
   0.0000048794    0.0000020798    0.0000000402
  -0.0000023206    0.0000000198   -0.0000056898
  -0.0000007306    0.0000046798    0.0000055802
   0.0018903394   -0.0009250502    0.0020076902
   0.0000097694    0.0000208798    0.0000552602
   0.0000111894   -0.0001599102    0.0006155402
   0.0002881894    0.0010759998    0.0013031002
   0.0000282294    0.0000655098    0.0000953502
  -0.0000113906   -0.0000419302    0.0000329202
  -0.0000106106   -0.0000115902    0.0000565102
   0.0000258494   -0.0000090802    0.0000542202
  -0.0000846706   -0.0000226802    0.0000640002
  -0.0025549606    0.0000104198   -0.0039621398
   0.0001497494   -0.0000015202    0.0003346502
   0.0002140694    0.0000104398    0.0002851402
   0.0000382294   -0.0001270802    0.0002941602
   0.0000129494    0.0000654698    0.0003254502
  -0.0000057306   -0.0000000002    0.0004114802
   0.0000048894   -0.0000582502    0.0003189302
  -0.0000053306    0.0000001198    0.0004113502
   0.0000462094    0.0001101798    0.0003007202
  -0.0000287606    0.0000143098   -0.0003838398
   0.0000012494   -0.0000018502   -0.0004141998
   0.0000561894    0.0000346798   -0.0003186498
  -0.0000035106   -0.0000492002   -0.0003511498
  -0.0000031606   -0.0000001302   -0.0004193498
   0.0000023394   -0.0000030602   -0.0004152298
   0.0000020994    0.0000008698   -0.0004130998
  -0.0000010706    0.0000011898   -0.0004155398
  -0.0000025406    0.0000033198   -0.0004173098
  -0.0000004806    0.0000001998    0.0004146702
  -0.0000013606    0.0000001698    0.0004150302
   0.0000003794    0.0000001898    0.0004145102
   0.0000003094   -0.0000003802    0.0004145802
   0.0000006494    0.0000009298    0.0004126602
  -0.0000014206    0.0000004298    0.0004145502
  -0.0000007006    0.0000006698    0.0004151102
  -0.0000003906   -0.0000007302    0.0004150302
  -0.0000004906   -0.0000011502    0.0004136102
  -0.0000529006   -0.0000001402    0.0001567502
   0.0000705494    0.0000612698   -0.0003769898
  -0.0000072606    0.0000075598   -0.0004389098
  -0.0000734006    0.0000113498   -0.0003996798
   0.0000253594    0.0000213798   -0.0004164098
   0.0000051694    0.0000000898   -0.0004380598
  -0.0000345506   -0.0001106302   -0.0003685398
   0.0000053594    0.0000000098   -0.0004380998
  -0.0000130106    0.0000075998   -0.0004471798

19   
 -0.0123263299851592   0.0000000000000000  -0.0157499710824168
  -0.0000048894   -0.0000000398    0.0000282198
   0.0000001106    0.0000046002   -0.0000034702
  -0.0000030294    0.0000031802   -0.0000030802
  -0.0000041694   -0.0000017098   -0.0000001702
   0.0000043406    0.0000002602   -0.0000064202
   0.0000001306   -0.0000000398    0.0000012398
  -0.0000048094   -0.0000019998   -0.0000003502
   0.0000021906   -0.0000001098    0.0000053798
   0.0000004906   -0.0000049898   -0.0000061802
  -0.0018084794    0.0008782402   -0.0019268702
  -0.0000092494   -0.0000208698   -0.0000541302
  -0.0000067894    0.0001618602   -0.0006213902
  -0.0002872194   -0.0010486398   -0.0012821802
  -0.0000297794   -0.0000649298   -0.0000931902
   0.0000114706    0.0000418602   -0.0000331302
   0.0000103306    0.0000114802   -0.0000549102
  -0.0000253694    0.0000095602   -0.0000533502
   0.0000833906    0.0000239002   -0.0000633702
   0.0024753906    0.0000099902    0.0046882898
  -0.0001492394    0.0000007502    0.0004901498
  -0.0002144994   -0.0000106898    0.0005417798
  -0.0000375394    0.0001259002    0.0005318498
  -0.0000146594   -0.0000656898    0.0004999098
   0.0000055306    0.0000000702    0.0004144598
  -0.0000058594    0.0000586702    0.0005060498
   0.0000056006   -0.0000000898    0.0004148998
  -0.0000461094   -0.0001095598    0.0005257398
   0.0000290706   -0.0000144498   -0.0004426102
  -0.0000012194    0.0000017602   -0.0004124402
  -0.0000580194   -0.0000358798   -0.0005114902
   0.0000040306    0.0000502202   -0.0004768002
   0.0000031506    0.0000001302   -0.0004073402
  -0.0000022494    0.0000030502   -0.0004114002
  -0.0000021194   -0.0000004498   -0.0004136802
   0.0000009106   -0.0000010998   -0.0004111602
   0.0000029006   -0.0000030798   -0.0004093602
   0.0000003306   -0.0000002498    0.0004119198
   0.0000015306   -0.0000001598    0.0004116198
  -0.0000001994    0.0000000402    0.0004119398
  -0.0000002094    0.0000002902    0.0004118698
  -0.0000006294   -0.0000008198    0.0004140098
   0.0000015106   -0.0000003898    0.0004121298
   0.0000006606   -0.0000004598    0.0004115498
   0.0000002906    0.0000008202    0.0004116298
   0.0000007606    0.0000013202    0.0004130798
   0.0000515906   -0.0000000198   -0.0009753702
  -0.0000703994   -0.0000620298   -0.0004484202
   0.0000083206   -0.0000085798   -0.0003874402
   0.0000733306   -0.0000115798   -0.0004262902
  -0.0000271194   -0.0000215098   -0.0004101302
  -0.0000052294    0.0000001102   -0.0003875602
   0.0000340406    0.0001088302   -0.0004565102
  -0.0000052094   -0.0000001098   -0.0003881202
   0.0000128906   -0.0000066698   -0.0003794002
