
     Program PWSCF v.7.3 starts on  5Nov2024 at 17:48:31 

     This program is part of the open-source Quantum ESPRESSO suite
     for quantum simulation of materials; please cite
         "P. Giannozzi et al., J. Phys.:Condens. Matter 21 395502 (2009);
         "P. Giannozzi et al., J. Phys.:Condens. Matter 29 465901 (2017);
         "P. Giannozzi et al., J. Chem. Phys. 152 154105 (2020);
          URL http://www.quantum-espresso.org", 
     in publications or presentations arising from this work. More details at
     http://www.quantum-espresso.org/quote

     Parallel version (MPI & OpenMP), running on     256 processor cores
     Number of MPI processes:               256
     Threads/MPI process:                     1

     MPI processes distributed on     1 nodes
     466805 MiB available memory on the printing compute node when the environment starts
 
     Waiting for input...
     Reading input from standard input

     Current dimensions of program PWSCF are:
     Max number of different atomic species (ntypx) = 10
     Max number of k-points (npk) =  40000
     Max angular momentum in pseudopotentials (lmaxx) =  4
 
     K-points division:     npool     =       4
     R & G space division:  proc/nbgrp/npool/nimage =      64
     Subspace diagonalization in iterative solution of the eigenvalue problem:
     one sub-group per band group will be used
     scalapack distributed-memory algorithm (size of sub-group:  4*  4 procs)

 
     Parallelization info
     --------------------
     sticks:   dense  smooth     PW     G-vecs:    dense   smooth      PW
     Min         127     127     32                11935    11935    1572
     Max         128     128     33                11944    11944    1585
     Sum        8161    8161   2107               764097   764097  101141
 
     Using Pencil Decomposition
 


     bravais-lattice index     =            0
     lattice parameter (alat)  =      19.2612  a.u.
     unit-cell volume          =    7907.2529 (a.u.)^3
     number of atoms/cell      =           54
     number of atomic types    =            2
     number of electrons       =       828.00
     number of Kohn-Sham states=          414
     kinetic-energy cutoff     =      80.0000  Ry
     charge density cutoff     =     320.0000  Ry
     scf convergence threshold =      1.0E-10
     mixing beta               =       0.5000
     number of iterations used =            8  plain     mixing
     Exchange-correlation= PBE
                           (   1   4   3   4   0   0   0)

     celldm(1)=  19.261185  celldm(2)=   0.000000  celldm(3)=   0.000000
     celldm(4)=   0.000000  celldm(5)=   0.000000  celldm(6)=   0.000000

     crystal axes: (cart. coord. in units of alat)
               a(1) = (   1.000000   0.000000   0.000000 )  
               a(2) = (  -0.500000   0.866025   0.000000 )  
               a(3) = (   0.000000   0.000000   1.277750 )  

     reciprocal axes: (cart. coord. in units 2 pi/alat)
               b(1) = (  1.000000  0.577350  0.000000 )  
               b(2) = (  0.000000  1.154701  0.000000 )  
               b(3) = (  0.000000  0.000000  0.782626 )  


     PseudoPot. # 1 for W  read from file:
     /users/rkarkee/pbe_pseudo/W.upf
     MD5 check sum: cb94e439a9e4ea809831d6e90c63864e
     Pseudo is Norm-conserving + core correction, Zval = 14.0
     Generated using ONCVPSP code by D. R. Hamann
     Using radial grid of 1396 points,  8 beta functions with: 
                l(1) =   0
                l(2) =   0
                l(3) =   1
                l(4) =   1
                l(5) =   2
                l(6) =   2
                l(7) =   3
                l(8) =   3

     PseudoPot. # 2 for Se read from file:
     /users/rkarkee/pbe_pseudo/Se.upf
     MD5 check sum: 3cc46b3642295b3f4fdae63b742ce36d
     Pseudo is Norm-conserving + core correction, Zval = 16.0
     Generated using ONCVPSP code by D. R. Hamann
     Using radial grid of 1214 points,  6 beta functions with: 
                l(1) =   0
                l(2) =   0
                l(3) =   1
                l(4) =   1
                l(5) =   2
                l(6) =   2

     atomic species   valence    mass     pseudopotential
     W                14.00   183.84000     W ( 1.00)
     Se               16.00    78.96000     Se( 1.00)

     No symmetry found



   Cartesian axes

     site n.     atom                  positions (alat units)
         1        W      tau(   1) = (  -0.0000000   0.1924501   0.9583127  )
         2        W      tau(   2) = (   0.3333333   0.1924501   0.9583127  )
         3        W      tau(   3) = (   0.6666667   0.1924501   0.9583127  )
         4        W      tau(   4) = (  -0.1666667   0.4811252   0.9583127  )
         5        W      tau(   5) = (   0.1666667   0.4811252   0.9583127  )
         6        W      tau(   6) = (   0.5000000   0.4811252   0.9583127  )
         7        W      tau(   7) = (  -0.3333333   0.7698004   0.9583127  )
         8        W      tau(   8) = (   0.0000000   0.7698004   0.9583127  )
         9        W      tau(   9) = (   0.3333333   0.7698004   0.9583127  )
        10        W      tau(  10) = (   0.1666667   0.0962250   0.3194376  )
        11        W      tau(  11) = (   0.5000000   0.0962250   0.3194376  )
        12        W      tau(  12) = (   0.8333333   0.0962250   0.3194376  )
        13        W      tau(  13) = (  -0.0000000   0.3849002   0.3194376  )
        14        W      tau(  14) = (   0.3333333   0.3849002   0.3194376  )
        15        W      tau(  15) = (   0.6666667   0.3849002   0.3194376  )
        16        W      tau(  16) = (  -0.1666667   0.6735753   0.3194376  )
        17        W      tau(  17) = (   0.1666667   0.6735753   0.3194376  )
        18        W      tau(  18) = (   0.5000000   0.6735753   0.3194376  )
        19        Se     tau(  19) = (  -0.0006400   0.1924501   0.1568519  )
        20        Se     tau(  20) = (   0.3333333   0.1924501   0.1576696  )
        21        Se     tau(  21) = (   0.6666667   0.1924501   0.1576696  )
        22        Se     tau(  22) = (  -0.1666667   0.4811252   0.1576696  )
        23        Se     tau(  23) = (   0.1666667   0.4811252   0.1576696  )
        24        Se     tau(  24) = (   0.5000000   0.4811252   0.1576696  )
        25        Se     tau(  25) = (  -0.3333333   0.7698004   0.1576696  )
        26        Se     tau(  26) = (   0.0000000   0.7698004   0.1576696  )
        27        Se     tau(  27) = (   0.3333333   0.7698004   0.1576696  )
        28        Se     tau(  28) = (   0.1666667   0.0962250   1.1200807  )
        29        Se     tau(  29) = (   0.5000000   0.0962250   1.1200807  )
        30        Se     tau(  30) = (   0.8333333   0.0962250   1.1200807  )
        31        Se     tau(  31) = (  -0.0000000   0.3849002   1.1200807  )
        32        Se     tau(  32) = (   0.3333333   0.3849002   1.1200807  )
        33        Se     tau(  33) = (   0.6666667   0.3849002   1.1200807  )
        34        Se     tau(  34) = (  -0.1666667   0.6735753   1.1200807  )
        35        Se     tau(  35) = (   0.1666667   0.6735753   1.1200807  )
        36        Se     tau(  36) = (   0.5000000   0.6735753   1.1200807  )
        37        Se     tau(  37) = (   0.1666667   0.0962250   0.7965447  )
        38        Se     tau(  38) = (   0.5000000   0.0962250   0.7965447  )
        39        Se     tau(  39) = (   0.8333333   0.0962250   0.7965447  )
        40        Se     tau(  40) = (  -0.0000000   0.3849002   0.7965447  )
        41        Se     tau(  41) = (   0.3333333   0.3849002   0.7965447  )
        42        Se     tau(  42) = (   0.6666667   0.3849002   0.7965447  )
        43        Se     tau(  43) = (  -0.1666667   0.6735753   0.7965447  )
        44        Se     tau(  44) = (   0.1666667   0.6735753   0.7965447  )
        45        Se     tau(  45) = (   0.5000000   0.6735753   0.7965447  )
        46        Se     tau(  46) = (  -0.0000000   0.1924501   0.4812056  )
        47        Se     tau(  47) = (   0.3333333   0.1924501   0.4812056  )
        48        Se     tau(  48) = (   0.6666667   0.1924501   0.4812056  )
        49        Se     tau(  49) = (  -0.1666667   0.4811252   0.4812056  )
        50        Se     tau(  50) = (   0.1666667   0.4811252   0.4812056  )
        51        Se     tau(  51) = (   0.5000000   0.4811252   0.4812056  )
        52        Se     tau(  52) = (  -0.3333333   0.7698004   0.4812056  )
        53        Se     tau(  53) = (   0.0000000   0.7698004   0.4812056  )
        54        Se     tau(  54) = (   0.3333333   0.7698004   0.4812056  )

     -------------------------------------------------
     Parameters for Dispersion (Grimme-D2) Correction:
     -------------------------------------------------
       atom      VdW radius       C_6     

        W          3.349       2818.308
        Se         3.347        438.498

     number of k points=    12
                       cart. coord. in units 2pi/alat
        k(    1) = (   0.2500000   0.4330127   0.1956564), wk =   0.1666667
        k(    2) = (   0.2500000  -0.1443376   0.1956564), wk =   0.1666667
        k(    3) = (  -0.2500000  -0.4330127   0.1956564), wk =   0.1666667
        k(    4) = (  -0.2500000   0.4330127  -0.1956564), wk =   0.1666667
        k(    5) = (   0.2500000  -0.4330127  -0.1956564), wk =   0.1666667
        k(    6) = (   0.5000000  -0.0000000   0.1956564), wk =   0.1666667
        k(    7) = (  -0.5000000   0.0000000   0.1956564), wk =   0.1666667
        k(    8) = (  -0.2500000   0.1443376   0.1956564), wk =   0.1666667
        k(    9) = (  -0.2500000  -0.1443376  -0.1956564), wk =   0.1666667
        k(   10) = (   0.2500000   0.1443376  -0.1956564), wk =   0.1666667
        k(   11) = (   0.0000000  -0.2886751   0.1956564), wk =   0.1666667
        k(   12) = (  -0.0000000   0.2886751   0.1956564), wk =   0.1666667

     Dense  grid:   764097 G-vectors     FFT dimensions: ( 120, 120, 144)

     Estimated max dynamical RAM per process >     128.15 MB

     Estimated total dynamical RAM >      31.49 GB

     Initial potential from superposition of free atoms

     starting charge     827.9882, renormalised to     828.0000
     Starting wfcs are  504 randomized atomic wfcs

     total cpu time spent up to now is       14.1 secs

     Self-consistent Calculation

     iteration #  1     ecut=    80.00 Ry     beta= 0.50
     Davidson diagonalization with overlap
     ethr =  1.00E-02,  avg # of iterations =  2.0

     Threshold (ethr) on eigenvalues was too large:
     Diagonalizing with lowered threshold

     Davidson diagonalization with overlap
     ethr =  8.84E-05,  avg # of iterations =  5.5

     total cpu time spent up to now is       95.6 secs

     total energy              =  -11463.59331093 Ry
     estimated scf accuracy    <       1.06176257 Ry

     iteration #  2     ecut=    80.00 Ry     beta= 0.50
     Davidson diagonalization with overlap
     ethr =  1.28E-04,  avg # of iterations =  2.0

     total cpu time spent up to now is      129.0 secs

     total energy              =  -11463.71440572 Ry
     estimated scf accuracy    <       0.11238071 Ry

     iteration #  3     ecut=    80.00 Ry     beta= 0.50
     Davidson diagonalization with overlap
     ethr =  1.36E-05,  avg # of iterations =  6.0

     total cpu time spent up to now is      176.3 secs

     total energy              =  -11463.71648375 Ry
     estimated scf accuracy    <       0.10633476 Ry

     iteration #  4     ecut=    80.00 Ry     beta= 0.50
     Davidson diagonalization with overlap
     ethr =  1.28E-05,  avg # of iterations =  5.5

     total cpu time spent up to now is      213.0 secs

     total energy              =  -11463.73659667 Ry
     estimated scf accuracy    <       0.00760814 Ry

     iteration #  5     ecut=    80.00 Ry     beta= 0.50
     Davidson diagonalization with overlap
     ethr =  9.19E-07,  avg # of iterations =  6.0

     total cpu time spent up to now is      260.1 secs

     total energy              =  -11463.73605376 Ry
     estimated scf accuracy    <       0.01207101 Ry

     iteration #  6     ecut=    80.00 Ry     beta= 0.50
     Davidson diagonalization with overlap
     ethr =  9.19E-07,  avg # of iterations =  4.9

     total cpu time spent up to now is      297.1 secs

     total energy              =  -11463.73686957 Ry
     estimated scf accuracy    <       0.00316583 Ry

     iteration #  7     ecut=    80.00 Ry     beta= 0.50
     Davidson diagonalization with overlap
     ethr =  3.82E-07,  avg # of iterations =  8.0

     total cpu time spent up to now is      347.6 secs

     total energy              =  -11463.73780842 Ry
     estimated scf accuracy    <       0.01094292 Ry

     iteration #  8     ecut=    80.00 Ry     beta= 0.50
     Davidson diagonalization with overlap
     ethr =  3.82E-07,  avg # of iterations =  4.7

     total cpu time spent up to now is      381.5 secs

     total energy              =  -11463.73693425 Ry
     estimated scf accuracy    <       0.00487647 Ry

     iteration #  9     ecut=    80.00 Ry     beta= 0.50
     Davidson diagonalization with overlap
     ethr =  3.82E-07,  avg # of iterations =  5.6

     total cpu time spent up to now is      420.0 secs

     total energy              =  -11463.73761105 Ry
     estimated scf accuracy    <       0.00007685 Ry

     iteration # 10     ecut=    80.00 Ry     beta= 0.50
     Davidson diagonalization with overlap
     ethr =  9.28E-09,  avg # of iterations =  5.8

     total cpu time spent up to now is      466.2 secs

     total energy              =  -11463.73764192 Ry
     estimated scf accuracy    <       0.00001755 Ry

     iteration # 11     ecut=    80.00 Ry     beta= 0.50
     Davidson diagonalization with overlap
     ethr =  2.12E-09,  avg # of iterations =  6.8

     total cpu time spent up to now is      504.9 secs

     total energy              =  -11463.73764183 Ry
     estimated scf accuracy    <       0.00001309 Ry

     iteration # 12     ecut=    80.00 Ry     beta= 0.50
     Davidson diagonalization with overlap
     ethr =  1.58E-09,  avg # of iterations =  6.0

     total cpu time spent up to now is      543.1 secs

     total energy              =  -11463.73764402 Ry
     estimated scf accuracy    <       0.00000227 Ry

     iteration # 13     ecut=    80.00 Ry     beta= 0.50
     Davidson diagonalization with overlap
     ethr =  2.75E-10,  avg # of iterations =  6.1

     total cpu time spent up to now is      588.3 secs

     total energy              =  -11463.73764344 Ry
     estimated scf accuracy    <       0.00000586 Ry

     iteration # 14     ecut=    80.00 Ry     beta= 0.50
     Davidson diagonalization with overlap
     ethr =  2.75E-10,  avg # of iterations =  3.8

     total cpu time spent up to now is      623.5 secs

     total energy              =  -11463.73764354 Ry
     estimated scf accuracy    <       0.00000093 Ry

     iteration # 15     ecut=    80.00 Ry     beta= 0.50
     Davidson diagonalization with overlap
     ethr =  1.12E-10,  avg # of iterations =  6.0

     total cpu time spent up to now is      669.8 secs

     total energy              =  -11463.73764394 Ry
     estimated scf accuracy    <       0.00000060 Ry

     iteration # 16     ecut=    80.00 Ry     beta= 0.50
     Davidson diagonalization with overlap
     ethr =  7.23E-11,  avg # of iterations =  2.0

     total cpu time spent up to now is      698.0 secs

     total energy              =  -11463.73764382 Ry
     estimated scf accuracy    <       0.00000058 Ry

     iteration # 17     ecut=    80.00 Ry     beta= 0.50
     Davidson diagonalization with overlap
     ethr =  6.99E-11,  avg # of iterations =  2.5

     total cpu time spent up to now is      729.2 secs

     total energy              =  -11463.73764384 Ry
     estimated scf accuracy    <       0.00000014 Ry

     iteration # 18     ecut=    80.00 Ry     beta= 0.50
     Davidson diagonalization with overlap
     ethr =  1.70E-11,  avg # of iterations =  6.0

     total cpu time spent up to now is      770.0 secs

     total energy              =  -11463.73764387 Ry
     estimated scf accuracy    <       0.00000001 Ry

     iteration # 19     ecut=    80.00 Ry     beta= 0.50
     Davidson diagonalization with overlap
     ethr =  1.58E-12,  avg # of iterations =  6.2

     total cpu time spent up to now is      814.8 secs

     total energy              =  -11463.73764387 Ry
     estimated scf accuracy    <       0.00000002 Ry

     iteration # 20     ecut=    80.00 Ry     beta= 0.50
     Davidson diagonalization with overlap
     ethr =  1.58E-12,  avg # of iterations =  2.0

     total cpu time spent up to now is      843.2 secs

     total energy              =  -11463.73764387 Ry
     estimated scf accuracy    <       0.00000001 Ry

     iteration # 21     ecut=    80.00 Ry     beta= 0.50
     Davidson diagonalization with overlap
     ethr =  1.24E-12,  avg # of iterations =  6.5

     total cpu time spent up to now is      882.0 secs

     total energy              =  -11463.73764387 Ry
     estimated scf accuracy    <          1.6E-09 Ry

     iteration # 22     ecut=    80.00 Ry     beta= 0.50
     Davidson diagonalization with overlap
     ethr =  1.96E-13,  avg # of iterations =  7.0

     total cpu time spent up to now is      921.3 secs

     total energy              =  -11463.73764387 Ry
     estimated scf accuracy    <          4.3E-10 Ry

     iteration # 23     ecut=    80.00 Ry     beta= 0.50
     Davidson diagonalization with overlap
     ethr =  1.00E-13,  avg # of iterations =  2.1

     total cpu time spent up to now is      951.4 secs

     total energy              =  -11463.73764387 Ry
     estimated scf accuracy    <          1.2E-10 Ry

     iteration # 24     ecut=    80.00 Ry     beta= 0.50
     Davidson diagonalization with overlap
     ethr =  1.00E-13,  avg # of iterations =  6.6

     total cpu time spent up to now is      986.4 secs

     total energy              =  -11463.73764387 Ry
     estimated scf accuracy    <          2.0E-10 Ry

     iteration # 25     ecut=    80.00 Ry     beta= 0.50
     Davidson diagonalization with overlap
     ethr =  1.00E-13,  avg # of iterations =  2.0

     total cpu time spent up to now is     1014.5 secs

     total energy              =  -11463.73764387 Ry
     estimated scf accuracy    <          1.0E-10 Ry

     iteration # 26     ecut=    80.00 Ry     beta= 0.50
     Davidson diagonalization with overlap
     ethr =  1.00E-13,  avg # of iterations =  1.0

     total cpu time spent up to now is     1039.4 secs

     End of self-consistent calculation

          k = 0.2500 0.4330 0.1957 ( 95526 PWs)   bands (ev):

   -62.2847 -62.2844 -62.2832 -62.2831 -62.2831 -62.2829 -62.2809 -62.2804
   -62.2804 -62.2801 -62.2796 -62.2795 -62.2795 -62.2795 -62.2792 -62.2791
   -62.2788 -62.2786 -35.7177 -35.7177 -35.7176 -35.7175 -35.7175 -35.7175
   -35.7174 -35.7174 -35.7174 -35.7174 -35.7173 -35.7173 -35.7173 -35.7172
   -35.7172 -35.7171 -35.7171 -35.7171 -35.7170 -35.7170 -35.7169 -35.7169
   -35.7169 -35.7169 -35.7168 -35.7168 -35.7167 -35.7167 -35.7166 -35.7166
   -35.7166 -35.7166 -35.7165 -35.7165 -35.7165 -35.7164 -35.7163 -35.7162
   -35.7162 -35.7162 -35.7161 -35.7161 -35.7160 -35.7159 -35.7158 -35.7156
   -35.7155 -35.7155 -35.7154 -35.7153 -35.7153 -35.7153 -35.7152 -35.7152
   -35.7150 -35.7149 -35.7149 -35.7148 -35.7148 -35.7148 -35.7147 -35.7147
   -35.7146 -35.7146 -35.7146 -35.7145 -35.7143 -35.7142 -35.7140 -35.7140
   -35.7117 -35.7117 -35.6774 -35.6774 -35.6772 -35.6772 -35.6771 -35.6771
   -35.6770 -35.6770 -35.6769 -35.6768 -35.6768 -35.6768 -35.6767 -35.6767
   -35.6766 -35.6766 -35.6766 -35.6765 -35.6765 -35.6764 -35.6764 -35.6764
   -35.6764 -35.6764 -35.6764 -35.6763 -35.6763 -35.6763 -35.6763 -35.6762
   -35.6762 -35.6762 -35.6761 -35.6761 -35.6761 -35.6760 -35.6760 -35.6759
   -35.6759 -35.6758 -35.6758 -35.6758 -35.6757 -35.6757 -35.6757 -35.6756
   -35.6756 -35.6756 -35.6756 -35.6755 -35.6755 -35.6755 -35.6754 -35.6754
   -35.6754 -35.6754 -35.6753 -35.6752 -35.6752 -35.6751 -35.6751 -35.6750
   -35.6750 -35.6749 -35.6748 -35.6748 -35.6747 -35.6746 -35.6746 -35.6745
   -35.6729 -35.6726 -35.6604 -35.6602 -35.6601 -35.6599 -35.6597 -35.6596
   -35.6595 -35.6595 -35.6594 -35.6593 -35.6593 -35.6592 -35.6592 -35.6590
   -35.6589 -35.6587 -35.6587 -35.6584 -35.6579 -35.6576 -35.6575 -35.6572
   -35.6570 -35.6570 -35.6569 -35.6568 -35.6567 -35.6567 -35.6566 -35.6566
   -35.6564 -35.6562 -35.6562 -35.6560 -35.6560 -35.6549 -26.5696 -26.5696
   -26.5692 -26.5690 -26.5623 -26.5618 -26.5456 -26.5452 -26.5353 -26.5353
   -26.5349 -26.5348 -26.4812 -26.4808 -26.4777 -26.4777 -26.4773 -26.4772
   -26.4760 -26.4755 -26.4596 -26.4596 -26.4594 -26.4591 -26.4569 -26.4569
   -26.4565 -26.4564 -26.4487 -26.4485 -26.4435 -26.4431 -26.4415 -26.4415
   -26.4415 -26.4410 -26.4301 -26.4301 -26.4297 -26.4296 -26.4270 -26.4269
   -26.4269 -26.4264 -26.4218 -26.4216 -26.4216 -26.4215 -26.4213 -26.4209
   -26.4203 -26.4199 -26.4196 -26.4193  -2.4551  -2.3144  -2.1274  -2.1260
    -1.9930  -1.9914  -1.3635  -1.3573  -1.3561  -1.2552  -1.2538  -1.1975
    -1.1969  -1.1380  -1.0219  -0.9979  -0.9975  -0.9966  -0.9949  -0.9486
    -0.9318  -0.9302  -0.8718  -0.8237  -0.8123  -0.8116  -0.6864  -0.6856
    -0.6445  -0.6430  -0.6425  -0.5746  -0.5743  -0.5736  -0.5613  -0.5249
     5.8493   5.8502   5.9325   6.0222   6.0231   6.0701   6.2240   6.3329
     6.3337   6.5118   6.5607   6.6053   6.6090   6.6099   6.7398   6.7407
     6.9150   6.9529   6.9671   6.9681   7.0186   7.0195   7.0670   7.0675
     7.0984   7.2013   7.3615   7.3624   7.4975   7.4981   7.6381   7.6392
     7.6971   7.7051   7.7063   7.7525   7.8661   7.8665   7.8684   7.8686
     7.8842   7.9186   7.9188   8.0444   8.0630   8.0646   8.4556   8.5354
     8.5363   8.5389   8.5395   8.5958   8.6216   8.6461   8.6701   8.7847
     8.7853   8.7859   8.8285   8.8294   8.8579   8.8877   8.8885   8.9075
     8.9144   8.9525   8.9527   9.0941   9.2851   9.3493   9.3505   9.4057
     9.4067   9.4803   9.4813   9.4937   9.4951   9.5975   9.6154   9.6338
     9.8144   9.8400   9.8404   9.8690   9.8701   9.8730   9.8736   9.8992
     9.9660   9.9743   9.9752  10.0289  10.0491  10.0966  10.0974  10.1729
    10.1736  10.1976  10.3233  10.3243  10.4052  10.4062  10.5147  10.5166
    10.5655  10.9145  10.9157  11.0287  11.1387  11.1393  11.1550  11.1559
    11.1615  11.1621  11.2875  11.2886  11.2915  11.2923  11.3030  11.3038
    11.3209  11.3818  11.3926  11.5473  11.6433  11.7832

          k = 0.2500-0.1443 0.1957 ( 95551 PWs)   bands (ev):

   -62.2853 -62.2852 -62.2828 -62.2825 -62.2816 -62.2816 -62.2816 -62.2814
   -62.2804 -62.2802 -62.2802 -62.2799 -62.2799 -62.2794 -62.2789 -62.2789
   -62.2786 -62.2784 -35.7178 -35.7177 -35.7177 -35.7176 -35.7176 -35.7176
   -35.7176 -35.7175 -35.7175 -35.7174 -35.7174 -35.7173 -35.7172 -35.7172
   -35.7172 -35.7171 -35.7171 -35.7171 -35.7171 -35.7170 -35.7170 -35.7170
   -35.7170 -35.7169 -35.7168 -35.7168 -35.7168 -35.7167 -35.7167 -35.7167
   -35.7166 -35.7165 -35.7164 -35.7163 -35.7163 -35.7162 -35.7162 -35.7161
   -35.7159 -35.7159 -35.7158 -35.7158 -35.7157 -35.7156 -35.7155 -35.7155
   -35.7155 -35.7153 -35.7153 -35.7153 -35.7152 -35.7152 -35.7152 -35.7152
   -35.7152 -35.7151 -35.7149 -35.7149 -35.7149 -35.7149 -35.7148 -35.7147
   -35.7147 -35.7146 -35.7146 -35.7146 -35.7144 -35.7144 -35.7142 -35.7141
   -35.7117 -35.7117 -35.6776 -35.6776 -35.6771 -35.6771 -35.6770 -35.6770
   -35.6769 -35.6769 -35.6768 -35.6768 -35.6767 -35.6767 -35.6767 -35.6766
   -35.6766 -35.6766 -35.6766 -35.6766 -35.6765 -35.6765 -35.6764 -35.6764
   -35.6764 -35.6764 -35.6764 -35.6763 -35.6763 -35.6763 -35.6763 -35.6762
   -35.6762 -35.6762 -35.6761 -35.6761 -35.6760 -35.6760 -35.6760 -35.6760
   -35.6760 -35.6759 -35.6759 -35.6759 -35.6758 -35.6757 -35.6757 -35.6757
   -35.6757 -35.6757 -35.6756 -35.6755 -35.6755 -35.6754 -35.6754 -35.6754
   -35.6753 -35.6753 -35.6753 -35.6753 -35.6752 -35.6752 -35.6751 -35.6751
   -35.6750 -35.6749 -35.6747 -35.6747 -35.6747 -35.6746 -35.6745 -35.6745
   -35.6729 -35.6726 -35.6606 -35.6600 -35.6600 -35.6598 -35.6598 -35.6595
   -35.6595 -35.6595 -35.6594 -35.6594 -35.6592 -35.6592 -35.6592 -35.6591
   -35.6589 -35.6588 -35.6587 -35.6584 -35.6581 -35.6574 -35.6574 -35.6572
   -35.6572 -35.6569 -35.6569 -35.6568 -35.6567 -35.6567 -35.6566 -35.6565
   -35.6565 -35.6563 -35.6562 -35.6560 -35.6560 -35.6549 -26.5647 -26.5643
   -26.5503 -26.5503 -26.5500 -26.5497 -26.5479 -26.5479 -26.5476 -26.5472
   -26.5167 -26.5167 -26.5165 -26.5161 -26.4973 -26.4973 -26.4969 -26.4969
   -26.4946 -26.4941 -26.4529 -26.4527 -26.4512 -26.4512 -26.4509 -26.4508
   -26.4482 -26.4478 -26.4414 -26.4414 -26.4410 -26.4410 -26.4384 -26.4382
   -26.4331 -26.4331 -26.4329 -26.4328 -26.4316 -26.4312 -26.4258 -26.4258
   -26.4256 -26.4255 -26.4238 -26.4235 -26.4234 -26.4230 -26.4185 -26.4185
   -26.4182 -26.4182 -26.4149 -26.4145  -2.6322  -2.4893  -1.9771  -1.8468
    -1.7035  -1.7021  -1.5831  -1.5815  -1.4536  -1.2798  -1.2785  -1.2151
    -1.1845  -1.1830  -1.1461  -1.1225  -1.0639  -0.9856  -0.9852  -0.9358
    -0.8241  -0.8236  -0.8043  -0.8030  -0.7786  -0.7781  -0.7663  -0.7647
    -0.7173  -0.6648  -0.6642  -0.6245  -0.5340  -0.5334  -0.4938  -0.4931
     5.7060   5.9203   6.0985   6.2331   6.2335   6.3905   6.4077   6.4082
     6.4729   6.4745   6.4753   6.5595   6.5603   6.6549   6.6556   6.8084
     6.8090   6.9143   6.9153   7.0008   7.0013   7.0296   7.1297   7.1959
     7.2343   7.2354   7.2791   7.2792   7.3189   7.3192   7.5214   7.5215
     7.5563   7.6175   7.6392   7.6397   7.6721   7.8044   7.8048   7.9703
     7.9716   7.9942   7.9952   8.0457   8.0677   8.0683   8.1867   8.1870
     8.2300   8.2307   8.2852   8.3967   8.3975   8.5944   8.7012   8.7024
     8.8270   8.8285   8.8573   8.8588   8.9004   8.9443   8.9453   8.9643
     8.9837   8.9842   9.0779   9.1015   9.1523   9.1531   9.1551   9.4637
     9.4810   9.4851   9.5409   9.7848   9.7854   9.8538   9.9520   9.9526
     9.9737   9.9744   9.9770   9.9775   9.9801   9.9808  10.0180  10.0200
    10.0219  10.0334  10.0877  10.0983  10.1152  10.1159  10.1477  10.2746
    10.2751  10.2832  10.2869  10.2877  10.3246  10.5008  10.5660  10.5734
    10.5735  10.6644  10.6961  10.7799  10.9404  10.9482  10.9832  10.9835
    11.0204  11.0210  11.0471  11.0475  11.0698  11.0992  11.0996  11.1360
    11.5658  11.5660  11.6902  11.6904  11.8208  12.1092

          k =-0.2500-0.4330 0.1957 ( 95526 PWs)   bands (ev):

   -62.2847 -62.2844 -62.2832 -62.2831 -62.2831 -62.2829 -62.2809 -62.2804
   -62.2804 -62.2801 -62.2796 -62.2795 -62.2795 -62.2795 -62.2792 -62.2791
   -62.2788 -62.2786 -35.7177 -35.7177 -35.7176 -35.7175 -35.7175 -35.7175
   -35.7174 -35.7174 -35.7174 -35.7174 -35.7173 -35.7173 -35.7173 -35.7172
   -35.7172 -35.7171 -35.7171 -35.7171 -35.7170 -35.7170 -35.7169 -35.7169
   -35.7169 -35.7169 -35.7168 -35.7168 -35.7167 -35.7167 -35.7166 -35.7166
   -35.7166 -35.7166 -35.7165 -35.7165 -35.7165 -35.7164 -35.7163 -35.7162
   -35.7162 -35.7162 -35.7161 -35.7161 -35.7160 -35.7159 -35.7158 -35.7156
   -35.7155 -35.7155 -35.7154 -35.7153 -35.7153 -35.7153 -35.7152 -35.7152
   -35.7150 -35.7149 -35.7149 -35.7148 -35.7148 -35.7148 -35.7147 -35.7147
   -35.7146 -35.7146 -35.7146 -35.7145 -35.7143 -35.7142 -35.7140 -35.7140
   -35.7117 -35.7117 -35.6774 -35.6774 -35.6772 -35.6772 -35.6771 -35.6771
   -35.6770 -35.6770 -35.6769 -35.6768 -35.6768 -35.6768 -35.6767 -35.6767
   -35.6766 -35.6766 -35.6766 -35.6765 -35.6765 -35.6765 -35.6764 -35.6764
   -35.6764 -35.6764 -35.6764 -35.6763 -35.6763 -35.6763 -35.6763 -35.6762
   -35.6762 -35.6762 -35.6761 -35.6761 -35.6761 -35.6760 -35.6760 -35.6759
   -35.6759 -35.6758 -35.6758 -35.6758 -35.6757 -35.6757 -35.6757 -35.6756
   -35.6756 -35.6756 -35.6756 -35.6755 -35.6755 -35.6755 -35.6754 -35.6754
   -35.6754 -35.6754 -35.6753 -35.6752 -35.6752 -35.6751 -35.6751 -35.6750
   -35.6750 -35.6749 -35.6748 -35.6748 -35.6747 -35.6746 -35.6746 -35.6745
   -35.6729 -35.6726 -35.6604 -35.6602 -35.6601 -35.6599 -35.6597 -35.6596
   -35.6595 -35.6595 -35.6594 -35.6593 -35.6593 -35.6592 -35.6592 -35.6590
   -35.6589 -35.6587 -35.6587 -35.6584 -35.6579 -35.6576 -35.6575 -35.6572
   -35.6570 -35.6570 -35.6569 -35.6568 -35.6567 -35.6567 -35.6566 -35.6566
   -35.6564 -35.6562 -35.6562 -35.6560 -35.6560 -35.6549 -26.5696 -26.5696
   -26.5692 -26.5690 -26.5623 -26.5618 -26.5456 -26.5452 -26.5353 -26.5353
   -26.5349 -26.5348 -26.4812 -26.4808 -26.4777 -26.4777 -26.4773 -26.4772
   -26.4760 -26.4755 -26.4596 -26.4596 -26.4594 -26.4591 -26.4569 -26.4569
   -26.4565 -26.4564 -26.4487 -26.4485 -26.4435 -26.4431 -26.4415 -26.4415
   -26.4415 -26.4410 -26.4301 -26.4301 -26.4297 -26.4296 -26.4270 -26.4269
   -26.4269 -26.4264 -26.4218 -26.4216 -26.4216 -26.4215 -26.4213 -26.4209
   -26.4203 -26.4199 -26.4196 -26.4193  -2.4551  -2.3144  -2.1274  -2.1260
    -1.9930  -1.9914  -1.3635  -1.3573  -1.3561  -1.2552  -1.2538  -1.1975
    -1.1969  -1.1380  -1.0219  -0.9979  -0.9974  -0.9966  -0.9949  -0.9486
    -0.9318  -0.9302  -0.8718  -0.8237  -0.8123  -0.8116  -0.6864  -0.6856
    -0.6444  -0.6430  -0.6425  -0.5746  -0.5743  -0.5736  -0.5613  -0.5249
     5.8493   5.8502   5.9325   6.0222   6.0231   6.0701   6.2241   6.3330
     6.3337   6.5119   6.5607   6.6054   6.6091   6.6099   6.7398   6.7406
     6.9150   6.9529   6.9671   6.9680   7.0186   7.0194   7.0669   7.0676
     7.0984   7.2013   7.3614   7.3624   7.4976   7.4982   7.6380   7.6392
     7.6972   7.7051   7.7063   7.7526   7.8661   7.8665   7.8685   7.8687
     7.8840   7.9187   7.9187   8.0442   8.0632   8.0646   8.4557   8.5356
     8.5362   8.5388   8.5395   8.5959   8.6216   8.6463   8.6701   8.7846
     8.7853   8.7858   8.8285   8.8295   8.8577   8.8877   8.8885   8.9074
     8.9145   8.9524   8.9527   9.0941   9.2852   9.3493   9.3505   9.4057
     9.4068   9.4804   9.4812   9.4936   9.4950   9.5975   9.6154   9.6337
     9.8143   9.8400   9.8405   9.8690   9.8700   9.8730   9.8736   9.8993
     9.9660   9.9743   9.9753  10.0287  10.0492  10.0965  10.0974  10.1729
    10.1736  10.1978  10.3235  10.3244  10.4050  10.4062  10.5148  10.5167
    10.5655  10.9144  10.9157  11.0285  11.1387  11.1393  11.1549  11.1560
    11.1614  11.1621  11.2876  11.2886  11.2916  11.2923  11.3029  11.3039
    11.3210  11.3817  11.3926  11.5473  11.6435  11.7832

          k =-0.2500 0.4330-0.1957 ( 95526 PWs)   bands (ev):

   -62.2847 -62.2844 -62.2834 -62.2831 -62.2831 -62.2826 -62.2809 -62.2804
   -62.2804 -62.2800 -62.2797 -62.2795 -62.2795 -62.2794 -62.2791 -62.2790
   -62.2788 -62.2786 -35.7177 -35.7177 -35.7176 -35.7175 -35.7175 -35.7175
   -35.7174 -35.7174 -35.7174 -35.7173 -35.7173 -35.7173 -35.7173 -35.7172
   -35.7172 -35.7171 -35.7171 -35.7170 -35.7170 -35.7170 -35.7169 -35.7169
   -35.7169 -35.7169 -35.7169 -35.7168 -35.7167 -35.7167 -35.7167 -35.7166
   -35.7166 -35.7166 -35.7165 -35.7165 -35.7165 -35.7164 -35.7163 -35.7162
   -35.7162 -35.7162 -35.7162 -35.7161 -35.7160 -35.7159 -35.7158 -35.7156
   -35.7155 -35.7155 -35.7155 -35.7153 -35.7153 -35.7152 -35.7152 -35.7152
   -35.7150 -35.7149 -35.7149 -35.7148 -35.7148 -35.7148 -35.7147 -35.7146
   -35.7146 -35.7146 -35.7146 -35.7145 -35.7143 -35.7142 -35.7141 -35.7139
   -35.7117 -35.7116 -35.6774 -35.6774 -35.6772 -35.6771 -35.6771 -35.6771
   -35.6770 -35.6770 -35.6769 -35.6768 -35.6768 -35.6768 -35.6767 -35.6767
   -35.6766 -35.6766 -35.6766 -35.6765 -35.6765 -35.6765 -35.6764 -35.6764
   -35.6764 -35.6764 -35.6764 -35.6763 -35.6763 -35.6763 -35.6763 -35.6762
   -35.6762 -35.6761 -35.6761 -35.6761 -35.6761 -35.6761 -35.6759 -35.6759
   -35.6759 -35.6759 -35.6758 -35.6758 -35.6757 -35.6757 -35.6757 -35.6756
   -35.6756 -35.6756 -35.6756 -35.6756 -35.6755 -35.6755 -35.6754 -35.6754
   -35.6754 -35.6754 -35.6753 -35.6752 -35.6752 -35.6751 -35.6751 -35.6750
   -35.6750 -35.6749 -35.6748 -35.6748 -35.6747 -35.6747 -35.6746 -35.6745
   -35.6729 -35.6726 -35.6604 -35.6601 -35.6601 -35.6599 -35.6597 -35.6596
   -35.6595 -35.6595 -35.6594 -35.6594 -35.6593 -35.6592 -35.6592 -35.6590
   -35.6589 -35.6587 -35.6587 -35.6584 -35.6579 -35.6576 -35.6575 -35.6573
   -35.6570 -35.6570 -35.6569 -35.6568 -35.6567 -35.6567 -35.6566 -35.6566
   -35.6564 -35.6563 -35.6561 -35.6560 -35.6560 -35.6549 -26.5696 -26.5696
   -26.5692 -26.5690 -26.5623 -26.5619 -26.5456 -26.5451 -26.5353 -26.5353
   -26.5352 -26.5346 -26.4812 -26.4808 -26.4777 -26.4777 -26.4774 -26.4771
   -26.4760 -26.4755 -26.4596 -26.4596 -26.4593 -26.4592 -26.4569 -26.4569
   -26.4567 -26.4562 -26.4487 -26.4485 -26.4435 -26.4431 -26.4415 -26.4415
   -26.4415 -26.4410 -26.4301 -26.4301 -26.4298 -26.4296 -26.4270 -26.4269
   -26.4269 -26.4264 -26.4218 -26.4216 -26.4216 -26.4215 -26.4213 -26.4209
   -26.4203 -26.4199 -26.4196 -26.4193  -2.4551  -2.3144  -2.1274  -2.1260
    -1.9930  -1.9914  -1.3635  -1.3573  -1.3559  -1.2552  -1.2536  -1.1975
    -1.1969  -1.1380  -1.0220  -0.9979  -0.9975  -0.9965  -0.9952  -0.9487
    -0.9318  -0.9304  -0.8716  -0.8235  -0.8123  -0.8118  -0.6864  -0.6858
    -0.6444  -0.6430  -0.6423  -0.5746  -0.5743  -0.5734  -0.5611  -0.5251
     5.8496   5.8502   5.9325   6.0225   6.0231   6.0699   6.2238   6.3330
     6.3336   6.5119   6.5608   6.6053   6.6093   6.6096   6.7398   6.7404
     6.9153   6.9531   6.9671   6.9681   7.0186   7.0193   7.0668   7.0672
     7.0981   7.2010   7.3619   7.3624   7.4976   7.4981   7.6382   7.6386
     7.6975   7.7052   7.7067   7.7524   7.8661   7.8666   7.8683   7.8692
     7.8843   7.9185   7.9190   8.0446   8.0634   8.0640   8.4559   8.5355
     8.5361   8.5387   8.5399   8.5957   8.6214   8.6464   8.6701   8.7847
     8.7855   8.7859   8.8285   8.8290   8.8579   8.8876   8.8886   8.9080
     8.9140   8.9521   8.9536   9.0942   9.2851   9.3490   9.3506   9.4058
     9.4065   9.4800   9.4811   9.4939   9.4948   9.5983   9.6156   9.6340
     9.8137   9.8400   9.8404   9.8695   9.8702   9.8731   9.8735   9.8983
     9.9651   9.9743   9.9752  10.0290  10.0489  10.0968  10.0972  10.1727
    10.1735  10.1975  10.3228  10.3244  10.4055  10.4061  10.5150  10.5163
    10.5659  10.9148  10.9156  11.0287  11.1386  11.1391  11.1553  11.1562
    11.1613  11.1619  11.2875  11.2886  11.2916  11.2926  11.3030  11.3036
    11.3210  11.3819  11.3924  11.5472  11.6434  11.7835

          k = 0.2500-0.4330-0.1957 ( 95526 PWs)   bands (ev):

   -62.2847 -62.2844 -62.2834 -62.2831 -62.2831 -62.2826 -62.2809 -62.2804
   -62.2804 -62.2800 -62.2797 -62.2795 -62.2795 -62.2794 -62.2791 -62.2790
   -62.2788 -62.2786 -35.7177 -35.7177 -35.7176 -35.7175 -35.7175 -35.7175
   -35.7174 -35.7174 -35.7174 -35.7173 -35.7173 -35.7173 -35.7173 -35.7172
   -35.7172 -35.7171 -35.7171 -35.7170 -35.7170 -35.7170 -35.7169 -35.7169
   -35.7169 -35.7169 -35.7169 -35.7168 -35.7167 -35.7167 -35.7167 -35.7166
   -35.7166 -35.7166 -35.7165 -35.7165 -35.7165 -35.7164 -35.7163 -35.7162
   -35.7162 -35.7162 -35.7162 -35.7161 -35.7160 -35.7159 -35.7158 -35.7156
   -35.7155 -35.7155 -35.7155 -35.7153 -35.7153 -35.7152 -35.7152 -35.7152
   -35.7150 -35.7149 -35.7149 -35.7148 -35.7148 -35.7148 -35.7147 -35.7146
   -35.7146 -35.7146 -35.7146 -35.7145 -35.7143 -35.7142 -35.7141 -35.7139
   -35.7117 -35.7116 -35.6774 -35.6774 -35.6772 -35.6771 -35.6771 -35.6771
   -35.6770 -35.6769 -35.6769 -35.6768 -35.6768 -35.6768 -35.6767 -35.6767
   -35.6766 -35.6766 -35.6766 -35.6765 -35.6765 -35.6765 -35.6764 -35.6764
   -35.6764 -35.6764 -35.6763 -35.6763 -35.6763 -35.6763 -35.6763 -35.6762
   -35.6762 -35.6762 -35.6761 -35.6761 -35.6761 -35.6761 -35.6759 -35.6759
   -35.6759 -35.6759 -35.6758 -35.6758 -35.6757 -35.6757 -35.6757 -35.6756
   -35.6756 -35.6756 -35.6756 -35.6756 -35.6755 -35.6755 -35.6754 -35.6754
   -35.6754 -35.6754 -35.6753 -35.6752 -35.6752 -35.6751 -35.6751 -35.6750
   -35.6750 -35.6749 -35.6748 -35.6748 -35.6747 -35.6747 -35.6746 -35.6745
   -35.6729 -35.6726 -35.6604 -35.6601 -35.6601 -35.6599 -35.6597 -35.6596
   -35.6595 -35.6595 -35.6594 -35.6594 -35.6593 -35.6592 -35.6592 -35.6590
   -35.6589 -35.6587 -35.6587 -35.6584 -35.6579 -35.6576 -35.6575 -35.6573
   -35.6570 -35.6570 -35.6569 -35.6568 -35.6567 -35.6567 -35.6566 -35.6566
   -35.6564 -35.6563 -35.6561 -35.6560 -35.6560 -35.6549 -26.5696 -26.5696
   -26.5692 -26.5690 -26.5623 -26.5619 -26.5456 -26.5451 -26.5353 -26.5353
   -26.5352 -26.5346 -26.4812 -26.4808 -26.4777 -26.4777 -26.4774 -26.4771
   -26.4760 -26.4755 -26.4596 -26.4596 -26.4593 -26.4592 -26.4569 -26.4569
   -26.4567 -26.4562 -26.4487 -26.4485 -26.4435 -26.4431 -26.4415 -26.4415
   -26.4415 -26.4410 -26.4301 -26.4301 -26.4298 -26.4296 -26.4270 -26.4269
   -26.4269 -26.4264 -26.4218 -26.4216 -26.4216 -26.4215 -26.4213 -26.4209
   -26.4203 -26.4199 -26.4196 -26.4193  -2.4551  -2.3144  -2.1274  -2.1260
    -1.9930  -1.9914  -1.3635  -1.3573  -1.3559  -1.2552  -1.2536  -1.1975
    -1.1969  -1.1380  -1.0220  -0.9979  -0.9974  -0.9965  -0.9953  -0.9487
    -0.9318  -0.9304  -0.8716  -0.8235  -0.8123  -0.8118  -0.6864  -0.6858
    -0.6444  -0.6430  -0.6423  -0.5746  -0.5743  -0.5733  -0.5611  -0.5251
     5.8496   5.8501   5.9325   6.0224   6.0231   6.0698   6.2238   6.3330
     6.3337   6.5119   6.5608   6.6053   6.6093   6.6096   6.7398   6.7404
     6.9153   6.9531   6.9671   6.9680   7.0186   7.0192   7.0668   7.0673
     7.0981   7.2010   7.3618   7.3623   7.4978   7.4980   7.6382   7.6385
     7.6977   7.7052   7.7067   7.7525   7.8660   7.8665   7.8682   7.8694
     7.8841   7.9185   7.9190   8.0444   8.0634   8.0641   8.4560   8.5355
     8.5363   8.5387   8.5397   8.5957   8.6214   8.6466   8.6701   8.7848
     8.7854   8.7857   8.8285   8.8291   8.8577   8.8876   8.8888   8.9078
     8.9141   8.9521   8.9535   9.0941   9.2853   9.3490   9.3506   9.4059
     9.4066   9.4800   9.4810   9.4939   9.4947   9.5984   9.6156   9.6340
     9.8137   9.8401   9.8404   9.8695   9.8701   9.8730   9.8735   9.8984
     9.9651   9.9742   9.9753  10.0288  10.0490  10.0966  10.0973  10.1727
    10.1736  10.1976  10.3229  10.3245  10.4053  10.4060  10.5150  10.5164
    10.5659  10.9147  10.9157  11.0285  11.1386  11.1391  11.1552  11.1563
    11.1612  11.1618  11.2877  11.2884  11.2917  11.2925  11.3028  11.3037
    11.3211  11.3819  11.3924  11.5472  11.6436  11.7835

          k = 0.5000-0.0000 0.1957 ( 95526 PWs)   bands (ev):

   -62.2847 -62.2844 -62.2833 -62.2831 -62.2831 -62.2828 -62.2809 -62.2804
   -62.2804 -62.2801 -62.2796 -62.2795 -62.2795 -62.2795 -62.2791 -62.2791
   -62.2788 -62.2786 -35.7177 -35.7177 -35.7176 -35.7175 -35.7175 -35.7175
   -35.7174 -35.7174 -35.7174 -35.7174 -35.7174 -35.7173 -35.7173 -35.7172
   -35.7171 -35.7171 -35.7170 -35.7170 -35.7170 -35.7170 -35.7169 -35.7169
   -35.7169 -35.7169 -35.7168 -35.7168 -35.7167 -35.7167 -35.7167 -35.7166
   -35.7166 -35.7165 -35.7165 -35.7165 -35.7165 -35.7164 -35.7164 -35.7162
   -35.7162 -35.7162 -35.7162 -35.7161 -35.7160 -35.7159 -35.7158 -35.7157
   -35.7155 -35.7155 -35.7154 -35.7153 -35.7153 -35.7152 -35.7152 -35.7152
   -35.7150 -35.7149 -35.7149 -35.7148 -35.7148 -35.7148 -35.7147 -35.7146
   -35.7146 -35.7146 -35.7146 -35.7145 -35.7143 -35.7141 -35.7141 -35.7140
   -35.7117 -35.7117 -35.6774 -35.6774 -35.6772 -35.6771 -35.6771 -35.6771
   -35.6770 -35.6770 -35.6769 -35.6768 -35.6768 -35.6768 -35.6767 -35.6767
   -35.6766 -35.6766 -35.6766 -35.6766 -35.6765 -35.6765 -35.6764 -35.6764
   -35.6764 -35.6764 -35.6763 -35.6763 -35.6763 -35.6763 -35.6763 -35.6762
   -35.6762 -35.6762 -35.6761 -35.6761 -35.6761 -35.6760 -35.6760 -35.6759
   -35.6759 -35.6758 -35.6758 -35.6758 -35.6757 -35.6757 -35.6756 -35.6756
   -35.6756 -35.6756 -35.6756 -35.6756 -35.6755 -35.6755 -35.6754 -35.6754
   -35.6754 -35.6754 -35.6753 -35.6752 -35.6752 -35.6752 -35.6751 -35.6750
   -35.6750 -35.6749 -35.6748 -35.6748 -35.6748 -35.6746 -35.6746 -35.6745
   -35.6729 -35.6726 -35.6604 -35.6602 -35.6601 -35.6599 -35.6596 -35.6596
   -35.6596 -35.6595 -35.6594 -35.6593 -35.6593 -35.6592 -35.6591 -35.6591
   -35.6588 -35.6587 -35.6587 -35.6584 -35.6579 -35.6576 -35.6575 -35.6572
   -35.6570 -35.6570 -35.6569 -35.6568 -35.6567 -35.6567 -35.6566 -35.6566
   -35.6564 -35.6563 -35.6561 -35.6561 -35.6560 -35.6549 -26.5696 -26.5696
   -26.5692 -26.5690 -26.5623 -26.5619 -26.5456 -26.5452 -26.5353 -26.5353
   -26.5350 -26.5347 -26.4812 -26.4808 -26.4777 -26.4777 -26.4774 -26.4771
   -26.4760 -26.4755 -26.4596 -26.4596 -26.4593 -26.4591 -26.4569 -26.4569
   -26.4566 -26.4563 -26.4487 -26.4485 -26.4435 -26.4431 -26.4415 -26.4415
   -26.4415 -26.4410 -26.4301 -26.4301 -26.4298 -26.4296 -26.4270 -26.4269
   -26.4269 -26.4264 -26.4218 -26.4216 -26.4216 -26.4216 -26.4213 -26.4209
   -26.4203 -26.4199 -26.4196 -26.4193  -2.4551  -2.3144  -2.1273  -2.1261
    -1.9930  -1.9915  -1.3635  -1.3573  -1.3561  -1.2551  -1.2538  -1.1973
    -1.1972  -1.1380  -1.0220  -0.9977  -0.9977  -0.9966  -0.9950  -0.9487
    -0.9318  -0.9303  -0.8717  -0.8236  -0.8122  -0.8117  -0.6863  -0.6857
    -0.6444  -0.6431  -0.6424  -0.5746  -0.5743  -0.5735  -0.5612  -0.5250
     5.8495   5.8502   5.9325   6.0223   6.0231   6.0700   6.2239   6.3331
     6.3335   6.5119   6.5608   6.6053   6.6092   6.6097   6.7398   6.7405
     6.9152   6.9530   6.9671   6.9681   7.0186   7.0194   7.0669   7.0673
     7.0983   7.2011   7.3618   7.3624   7.4975   7.4981   7.6382   7.6389
     7.6973   7.7053   7.7064   7.7524   7.8661   7.8665   7.8684   7.8688
     7.8844   7.9185   7.9189   8.0446   8.0631   8.0643   8.4557   8.5355
     8.5361   8.5388   8.5397   8.5957   8.6215   8.6461   8.6701   8.7847
     8.7854   8.7861   8.8285   8.8292   8.8580   8.8877   8.8884   8.9078
     8.9142   8.9524   8.9532   9.0942   9.2851   9.3493   9.3503   9.4058
     9.4065   9.4803   9.4810   9.4938   9.4951   9.5978   9.6155   9.6339
     9.8141   9.8400   9.8404   9.8691   9.8703   9.8731   9.8736   9.8988
     9.9656   9.9743   9.9752  10.0290  10.0489  10.0968  10.0973  10.1728
    10.1734  10.1975  10.3230  10.3243  10.4054  10.4062  10.5149  10.5164
    10.5657  10.9147  10.9156  11.0287  11.1386  11.1392  11.1552  11.1560
    11.1614  11.1620  11.2874  11.2886  11.2916  11.2925  11.3031  11.3037
    11.3210  11.3819  11.3925  11.5472  11.6432  11.7834

          k =-0.5000 0.0000 0.1957 ( 95526 PWs)   bands (ev):

   -62.2847 -62.2844 -62.2833 -62.2831 -62.2831 -62.2828 -62.2809 -62.2804
   -62.2804 -62.2801 -62.2796 -62.2795 -62.2795 -62.2795 -62.2791 -62.2791
   -62.2788 -62.2786 -35.7177 -35.7177 -35.7176 -35.7175 -35.7175 -35.7175
   -35.7174 -35.7174 -35.7174 -35.7174 -35.7174 -35.7173 -35.7173 -35.7172
   -35.7171 -35.7171 -35.7170 -35.7170 -35.7170 -35.7170 -35.7169 -35.7169
   -35.7169 -35.7169 -35.7168 -35.7168 -35.7167 -35.7167 -35.7167 -35.7166
   -35.7166 -35.7165 -35.7165 -35.7165 -35.7165 -35.7164 -35.7164 -35.7162
   -35.7162 -35.7162 -35.7162 -35.7161 -35.7160 -35.7159 -35.7158 -35.7157
   -35.7155 -35.7155 -35.7154 -35.7153 -35.7153 -35.7152 -35.7152 -35.7152
   -35.7150 -35.7149 -35.7149 -35.7148 -35.7148 -35.7148 -35.7147 -35.7146
   -35.7146 -35.7146 -35.7146 -35.7145 -35.7143 -35.7142 -35.7141 -35.7140
   -35.7117 -35.7117 -35.6774 -35.6774 -35.6772 -35.6771 -35.6771 -35.6771
   -35.6770 -35.6770 -35.6769 -35.6768 -35.6768 -35.6767 -35.6767 -35.6767
   -35.6766 -35.6766 -35.6766 -35.6766 -35.6765 -35.6765 -35.6764 -35.6764
   -35.6764 -35.6764 -35.6763 -35.6763 -35.6763 -35.6763 -35.6763 -35.6762
   -35.6762 -35.6762 -35.6761 -35.6761 -35.6761 -35.6760 -35.6760 -35.6759
   -35.6759 -35.6758 -35.6758 -35.6758 -35.6757 -35.6757 -35.6757 -35.6756
   -35.6756 -35.6756 -35.6756 -35.6756 -35.6755 -35.6755 -35.6754 -35.6754
   -35.6754 -35.6754 -35.6753 -35.6752 -35.6752 -35.6752 -35.6751 -35.6750
   -35.6750 -35.6749 -35.6748 -35.6748 -35.6748 -35.6746 -35.6746 -35.6745
   -35.6729 -35.6726 -35.6604 -35.6602 -35.6601 -35.6599 -35.6596 -35.6596
   -35.6596 -35.6595 -35.6594 -35.6593 -35.6593 -35.6592 -35.6591 -35.6591
   -35.6588 -35.6587 -35.6587 -35.6584 -35.6579 -35.6576 -35.6575 -35.6572
   -35.6570 -35.6570 -35.6569 -35.6568 -35.6567 -35.6567 -35.6566 -35.6566
   -35.6564 -35.6563 -35.6561 -35.6561 -35.6560 -35.6549 -26.5696 -26.5696
   -26.5692 -26.5690 -26.5623 -26.5619 -26.5456 -26.5452 -26.5353 -26.5353
   -26.5350 -26.5347 -26.4812 -26.4808 -26.4777 -26.4777 -26.4774 -26.4771
   -26.4760 -26.4755 -26.4596 -26.4596 -26.4593 -26.4591 -26.4569 -26.4569
   -26.4566 -26.4563 -26.4487 -26.4485 -26.4435 -26.4431 -26.4415 -26.4415
   -26.4415 -26.4410 -26.4301 -26.4301 -26.4298 -26.4296 -26.4270 -26.4269
   -26.4269 -26.4264 -26.4218 -26.4216 -26.4216 -26.4216 -26.4213 -26.4209
   -26.4203 -26.4199 -26.4196 -26.4193  -2.4551  -2.3144  -2.1273  -2.1261
    -1.9930  -1.9915  -1.3635  -1.3573  -1.3561  -1.2551  -1.2538  -1.1973
    -1.1972  -1.1380  -1.0220  -0.9977  -0.9976  -0.9966  -0.9951  -0.9487
    -0.9318  -0.9303  -0.8717  -0.8236  -0.8122  -0.8118  -0.6863  -0.6857
    -0.6444  -0.6431  -0.6424  -0.5746  -0.5743  -0.5734  -0.5612  -0.5250
     5.8495   5.8502   5.9325   6.0223   6.0231   6.0699   6.2239   6.3331
     6.3336   6.5119   6.5607   6.6054   6.6092   6.6097   6.7399   6.7405
     6.9151   6.9530   6.9671   6.9678   7.0186   7.0193   7.0668   7.0675
     7.0982   7.2012   7.3616   7.3623   7.4978   7.4980   7.6380   7.6389
     7.6975   7.7052   7.7064   7.7526   7.8660   7.8665   7.8683   7.8691
     7.8840   7.9187   7.9189   8.0442   8.0634   8.0643   8.4559   8.5357
     8.5362   8.5388   8.5395   8.5958   8.6215   8.6466   8.6701   8.7846
     8.7852   8.7858   8.8284   8.8294   8.8577   8.8877   8.8886   8.9075
     8.9144   8.9523   8.9530   9.0940   9.2853   9.3492   9.3505   9.4058
     9.4067   9.4804   9.4808   9.4937   9.4948   9.5980   9.6155   9.6339
     9.8140   9.8401   9.8404   9.8691   9.8702   9.8730   9.8735   9.8988
     9.9655   9.9742   9.9754  10.0287  10.0491  10.0965  10.0973  10.1729
    10.1736  10.1978  10.3232  10.3245  10.4051  10.4060  10.5150  10.5165
    10.5657  10.9145  10.9157  11.0284  11.1387  11.1393  11.1550  11.1562
    11.1613  11.1619  11.2877  11.2884  11.2916  11.2924  11.3028  11.3038
    11.3210  11.3818  11.3925  11.5473  11.6436  11.7833

          k =-0.2500 0.1443 0.1957 ( 95551 PWs)   bands (ev):

   -62.2853 -62.2852 -62.2828 -62.2825 -62.2816 -62.2816 -62.2816 -62.2814
   -62.2804 -62.2802 -62.2802 -62.2799 -62.2799 -62.2794 -62.2789 -62.2789
   -62.2786 -62.2784 -35.7178 -35.7177 -35.7177 -35.7176 -35.7176 -35.7176
   -35.7176 -35.7175 -35.7175 -35.7174 -35.7174 -35.7173 -35.7172 -35.7172
   -35.7172 -35.7171 -35.7171 -35.7171 -35.7171 -35.7170 -35.7170 -35.7170
   -35.7170 -35.7169 -35.7168 -35.7168 -35.7168 -35.7167 -35.7167 -35.7167
   -35.7166 -35.7165 -35.7164 -35.7163 -35.7163 -35.7162 -35.7162 -35.7161
   -35.7159 -35.7159 -35.7158 -35.7158 -35.7157 -35.7155 -35.7155 -35.7155
   -35.7155 -35.7153 -35.7153 -35.7153 -35.7152 -35.7152 -35.7152 -35.7152
   -35.7152 -35.7151 -35.7149 -35.7149 -35.7149 -35.7149 -35.7148 -35.7147
   -35.7147 -35.7146 -35.7146 -35.7146 -35.7144 -35.7144 -35.7142 -35.7141
   -35.7117 -35.7117 -35.6776 -35.6776 -35.6771 -35.6771 -35.6770 -35.6770
   -35.6769 -35.6769 -35.6768 -35.6768 -35.6767 -35.6767 -35.6767 -35.6766
   -35.6766 -35.6766 -35.6766 -35.6766 -35.6765 -35.6765 -35.6764 -35.6764
   -35.6764 -35.6764 -35.6764 -35.6763 -35.6763 -35.6763 -35.6763 -35.6762
   -35.6762 -35.6762 -35.6761 -35.6761 -35.6760 -35.6760 -35.6760 -35.6760
   -35.6760 -35.6759 -35.6759 -35.6759 -35.6758 -35.6758 -35.6757 -35.6757
   -35.6757 -35.6757 -35.6756 -35.6755 -35.6755 -35.6754 -35.6754 -35.6754
   -35.6753 -35.6753 -35.6753 -35.6753 -35.6752 -35.6752 -35.6751 -35.6751
   -35.6750 -35.6749 -35.6747 -35.6747 -35.6747 -35.6746 -35.6745 -35.6745
   -35.6729 -35.6726 -35.6606 -35.6600 -35.6600 -35.6598 -35.6598 -35.6595
   -35.6595 -35.6595 -35.6594 -35.6594 -35.6592 -35.6592 -35.6592 -35.6591
   -35.6589 -35.6588 -35.6587 -35.6584 -35.6581 -35.6574 -35.6574 -35.6572
   -35.6572 -35.6569 -35.6569 -35.6568 -35.6567 -35.6567 -35.6566 -35.6565
   -35.6565 -35.6563 -35.6562 -35.6560 -35.6560 -35.6549 -26.5647 -26.5643
   -26.5503 -26.5503 -26.5500 -26.5497 -26.5479 -26.5479 -26.5476 -26.5472
   -26.5167 -26.5167 -26.5165 -26.5161 -26.4973 -26.4973 -26.4969 -26.4969
   -26.4946 -26.4941 -26.4529 -26.4527 -26.4512 -26.4512 -26.4509 -26.4508
   -26.4482 -26.4478 -26.4414 -26.4414 -26.4410 -26.4410 -26.4384 -26.4382
   -26.4331 -26.4331 -26.4329 -26.4328 -26.4316 -26.4312 -26.4258 -26.4258
   -26.4256 -26.4255 -26.4238 -26.4235 -26.4234 -26.4230 -26.4185 -26.4185
   -26.4182 -26.4182 -26.4149 -26.4145  -2.6322  -2.4893  -1.9771  -1.8468
    -1.7035  -1.7021  -1.5831  -1.5814  -1.4536  -1.2799  -1.2785  -1.2151
    -1.1845  -1.1830  -1.1461  -1.1225  -1.0639  -0.9856  -0.9852  -0.9358
    -0.8241  -0.8236  -0.8043  -0.8030  -0.7786  -0.7781  -0.7663  -0.7648
    -0.7173  -0.6648  -0.6642  -0.6244  -0.5340  -0.5334  -0.4938  -0.4931
     5.7060   5.9203   6.0985   6.2332   6.2336   6.3905   6.4076   6.4081
     6.4730   6.4744   6.4752   6.5596   6.5605   6.6548   6.6556   6.8082
     6.8091   6.9146   6.9152   7.0010   7.0015   7.0292   7.1298   7.1958
     7.2345   7.2356   7.2785   7.2792   7.3191   7.3196   7.5209   7.5213
     7.5561   7.6176   7.6393   7.6396   7.6727   7.8045   7.8052   7.9703
     7.9707   7.9941   7.9956   8.0457   8.0681   8.0683   8.1866   8.1869
     8.2298   8.2308   8.2852   8.3970   8.3980   8.5943   8.7014   8.7023
     8.8270   8.8278   8.8572   8.8587   8.9004   8.9443   8.9456   8.9643
     8.9838   8.9845   9.0781   9.1014   9.1525   9.1532   9.1544   9.4637
     9.4810   9.4851   9.5409   9.7843   9.7854   9.8536   9.9525   9.9531
     9.9737   9.9747   9.9765   9.9775   9.9796   9.9807  10.0183  10.0200
    10.0212  10.0334  10.0877  10.0985  10.1158  10.1161  10.1477  10.2743
    10.2753  10.2832  10.2878  10.2880  10.3246  10.5010  10.5660  10.5725
    10.5731  10.6645  10.6961  10.7799  10.9402  10.9482  10.9834  10.9840
    11.0203  11.0209  11.0470  11.0473  11.0694  11.0993  11.0997  11.1362
    11.5659  11.5660  11.6901  11.6903  11.8211  12.1091

          k =-0.2500-0.1443-0.1957 ( 95551 PWs)   bands (ev):

   -62.2853 -62.2852 -62.2826 -62.2825 -62.2821 -62.2816 -62.2816 -62.2812
   -62.2802 -62.2802 -62.2802 -62.2800 -62.2799 -62.2794 -62.2789 -62.2789
   -62.2786 -62.2784 -35.7178 -35.7177 -35.7177 -35.7176 -35.7176 -35.7176
   -35.7176 -35.7175 -35.7175 -35.7174 -35.7174 -35.7173 -35.7172 -35.7172
   -35.7172 -35.7172 -35.7171 -35.7171 -35.7171 -35.7170 -35.7170 -35.7170
   -35.7169 -35.7169 -35.7168 -35.7168 -35.7168 -35.7168 -35.7167 -35.7166
   -35.7166 -35.7165 -35.7164 -35.7164 -35.7163 -35.7162 -35.7162 -35.7161
   -35.7160 -35.7159 -35.7158 -35.7158 -35.7157 -35.7156 -35.7155 -35.7155
   -35.7155 -35.7153 -35.7153 -35.7153 -35.7152 -35.7152 -35.7152 -35.7152
   -35.7151 -35.7151 -35.7149 -35.7149 -35.7149 -35.7149 -35.7148 -35.7147
   -35.7147 -35.7146 -35.7146 -35.7146 -35.7144 -35.7144 -35.7142 -35.7141
   -35.7117 -35.7117 -35.6776 -35.6776 -35.6771 -35.6771 -35.6770 -35.6770
   -35.6769 -35.6768 -35.6768 -35.6768 -35.6767 -35.6767 -35.6767 -35.6766
   -35.6766 -35.6766 -35.6766 -35.6766 -35.6765 -35.6765 -35.6764 -35.6764
   -35.6764 -35.6764 -35.6763 -35.6763 -35.6763 -35.6763 -35.6763 -35.6762
   -35.6762 -35.6762 -35.6762 -35.6761 -35.6760 -35.6760 -35.6760 -35.6760
   -35.6760 -35.6759 -35.6759 -35.6758 -35.6758 -35.6758 -35.6757 -35.6757
   -35.6757 -35.6756 -35.6756 -35.6755 -35.6755 -35.6754 -35.6754 -35.6754
   -35.6753 -35.6753 -35.6753 -35.6753 -35.6752 -35.6752 -35.6751 -35.6751
   -35.6750 -35.6749 -35.6748 -35.6747 -35.6747 -35.6746 -35.6746 -35.6744
   -35.6729 -35.6726 -35.6606 -35.6600 -35.6600 -35.6598 -35.6598 -35.6596
   -35.6595 -35.6595 -35.6594 -35.6594 -35.6592 -35.6592 -35.6592 -35.6591
   -35.6588 -35.6588 -35.6587 -35.6584 -35.6581 -35.6574 -35.6574 -35.6572
   -35.6572 -35.6569 -35.6569 -35.6568 -35.6567 -35.6567 -35.6566 -35.6565
   -35.6565 -35.6563 -35.6562 -35.6560 -35.6560 -35.6549 -26.5647 -26.5643
   -26.5503 -26.5503 -26.5500 -26.5497 -26.5479 -26.5479 -26.5476 -26.5472
   -26.5167 -26.5167 -26.5164 -26.5162 -26.4973 -26.4973 -26.4970 -26.4968
   -26.4946 -26.4942 -26.4529 -26.4527 -26.4512 -26.4512 -26.4510 -26.4507
   -26.4482 -26.4478 -26.4414 -26.4414 -26.4412 -26.4408 -26.4384 -26.4382
   -26.4331 -26.4331 -26.4329 -26.4328 -26.4316 -26.4312 -26.4258 -26.4258
   -26.4256 -26.4256 -26.4238 -26.4235 -26.4234 -26.4230 -26.4185 -26.4185
   -26.4183 -26.4182 -26.4149 -26.4145  -2.6322  -2.4892  -1.9771  -1.8467
    -1.7035  -1.7023  -1.5830  -1.5816  -1.4536  -1.2798  -1.2787  -1.2151
    -1.1845  -1.1831  -1.1459  -1.1226  -1.0637  -0.9856  -0.9851  -0.9359
    -0.8241  -0.8234  -0.8043  -0.8031  -0.7786  -0.7780  -0.7663  -0.7647
    -0.7175  -0.6648  -0.6641  -0.6247  -0.5340  -0.5335  -0.4938  -0.4930
     5.7060   5.9201   6.0983   6.2333   6.2336   6.3905   6.4078   6.4081
     6.4731   6.4743   6.4753   6.5597   6.5605   6.6548   6.6554   6.8084
     6.8090   6.9144   6.9153   7.0012   7.0013   7.0295   7.1298   7.1961
     7.2344   7.2357   7.2786   7.2789   7.3193   7.3197   7.5208   7.5212
     7.5562   7.6180   7.6391   7.6396   7.6725   7.8044   7.8046   7.9703
     7.9709   7.9941   7.9952   8.0460   8.0678   8.0684   8.1864   8.1868
     8.2299   8.2309   8.2847   8.3970   8.3980   8.5942   8.7012   8.7017
     8.8269   8.8273   8.8575   8.8587   8.9009   8.9442   8.9448   8.9648
     8.9838   8.9844   9.0780   9.1017   9.1525   9.1535   9.1542   9.4635
     9.4807   9.4858   9.5417   9.7849   9.7854   9.8534   9.9524   9.9530
     9.9737   9.9743   9.9767   9.9778   9.9801   9.9815  10.0176  10.0199
    10.0210  10.0332  10.0876  10.0977  10.1159  10.1163  10.1475  10.2744
    10.2754  10.2842  10.2868  10.2883  10.3258  10.5000  10.5661  10.5728
    10.5732  10.6646  10.6962  10.7795  10.9403  10.9478  10.9838  10.9843
    11.0199  11.0209  11.0474  11.0479  11.0689  11.0991  11.0999  11.1358
    11.5658  11.5661  11.6901  11.6904  11.8207  12.1091

          k = 0.2500 0.1443-0.1957 ( 95551 PWs)   bands (ev):

   -62.2853 -62.2852 -62.2826 -62.2825 -62.2821 -62.2816 -62.2816 -62.2812
   -62.2802 -62.2802 -62.2802 -62.2800 -62.2799 -62.2794 -62.2789 -62.2789
   -62.2786 -62.2784 -35.7178 -35.7177 -35.7177 -35.7176 -35.7176 -35.7176
   -35.7176 -35.7175 -35.7175 -35.7174 -35.7174 -35.7173 -35.7172 -35.7172
   -35.7172 -35.7172 -35.7171 -35.7171 -35.7171 -35.7170 -35.7170 -35.7170
   -35.7169 -35.7169 -35.7168 -35.7168 -35.7168 -35.7168 -35.7167 -35.7166
   -35.7166 -35.7165 -35.7164 -35.7164 -35.7163 -35.7162 -35.7162 -35.7161
   -35.7160 -35.7159 -35.7158 -35.7158 -35.7157 -35.7156 -35.7155 -35.7155
   -35.7155 -35.7153 -35.7153 -35.7153 -35.7152 -35.7152 -35.7152 -35.7152
   -35.7151 -35.7151 -35.7149 -35.7149 -35.7149 -35.7149 -35.7148 -35.7147
   -35.7147 -35.7146 -35.7146 -35.7146 -35.7144 -35.7144 -35.7142 -35.7141
   -35.7117 -35.7117 -35.6776 -35.6776 -35.6771 -35.6771 -35.6770 -35.6770
   -35.6769 -35.6768 -35.6768 -35.6768 -35.6767 -35.6767 -35.6767 -35.6766
   -35.6766 -35.6766 -35.6766 -35.6766 -35.6765 -35.6765 -35.6764 -35.6764
   -35.6764 -35.6764 -35.6763 -35.6763 -35.6763 -35.6763 -35.6763 -35.6762
   -35.6762 -35.6762 -35.6762 -35.6761 -35.6760 -35.6760 -35.6760 -35.6760
   -35.6760 -35.6759 -35.6759 -35.6758 -35.6758 -35.6758 -35.6757 -35.6757
   -35.6757 -35.6756 -35.6756 -35.6755 -35.6755 -35.6754 -35.6754 -35.6754
   -35.6753 -35.6753 -35.6753 -35.6753 -35.6752 -35.6752 -35.6751 -35.6751
   -35.6750 -35.6749 -35.6748 -35.6747 -35.6747 -35.6746 -35.6746 -35.6744
   -35.6729 -35.6726 -35.6606 -35.6600 -35.6600 -35.6598 -35.6598 -35.6596
   -35.6595 -35.6595 -35.6594 -35.6594 -35.6592 -35.6592 -35.6592 -35.6591
   -35.6588 -35.6588 -35.6587 -35.6584 -35.6581 -35.6574 -35.6574 -35.6572
   -35.6572 -35.6569 -35.6569 -35.6568 -35.6567 -35.6567 -35.6566 -35.6565
   -35.6565 -35.6563 -35.6562 -35.6560 -35.6560 -35.6549 -26.5647 -26.5643
   -26.5503 -26.5503 -26.5500 -26.5497 -26.5479 -26.5479 -26.5476 -26.5472
   -26.5167 -26.5167 -26.5164 -26.5162 -26.4973 -26.4973 -26.4970 -26.4968
   -26.4946 -26.4942 -26.4529 -26.4527 -26.4512 -26.4512 -26.4510 -26.4507
   -26.4482 -26.4478 -26.4414 -26.4414 -26.4412 -26.4408 -26.4384 -26.4382
   -26.4331 -26.4331 -26.4329 -26.4328 -26.4316 -26.4312 -26.4258 -26.4258
   -26.4256 -26.4256 -26.4238 -26.4235 -26.4234 -26.4230 -26.4185 -26.4185
   -26.4183 -26.4182 -26.4149 -26.4145  -2.6322  -2.4892  -1.9771  -1.8467
    -1.7035  -1.7023  -1.5830  -1.5816  -1.4536  -1.2798  -1.2787  -1.2151
    -1.1845  -1.1831  -1.1459  -1.1225  -1.0637  -0.9856  -0.9850  -0.9359
    -0.8241  -0.8234  -0.8043  -0.8030  -0.7786  -0.7780  -0.7663  -0.7648
    -0.7175  -0.6648  -0.6640  -0.6247  -0.5340  -0.5334  -0.4938  -0.4931
     5.7060   5.9201   6.0982   6.2332   6.2335   6.3905   6.4079   6.4082
     6.4732   6.4745   6.4752   6.5595   6.5606   6.6549   6.6557   6.8082
     6.8091   6.9147   6.9152   7.0008   7.0011   7.0296   7.1298   7.1961
     7.2341   7.2354   7.2790   7.2793   7.3188   7.3193   7.5212   7.5219
     7.5562   7.6180   7.6391   7.6397   7.6723   7.8043   7.8048   7.9703
     7.9709   7.9945   7.9948   8.0460   8.0677   8.0683   8.1862   8.1869
     8.2300   8.2309   8.2850   8.3968   8.3975   8.5940   8.7016   8.7026
     8.8269   8.8274   8.8572   8.8583   8.9008   8.9443   8.9447   8.9648
     8.9837   8.9841   9.0783   9.1017   9.1522   9.1536   9.1543   9.4635
     9.4806   9.4858   9.5416   9.7844   9.7854   9.8528   9.9525   9.9533
     9.9737   9.9747   9.9772   9.9779   9.9801   9.9804  10.0177  10.0201
    10.0209  10.0333  10.0875  10.0983  10.1158  10.1167  10.1478  10.2747
    10.2752  10.2842  10.2870  10.2880  10.3257  10.5001  10.5661  10.5726
    10.5735  10.6641  10.6963  10.7793  10.9400  10.9478  10.9838  10.9841
    11.0201  11.0211  11.0475  11.0480  11.0693  11.0989  11.0998  11.1355
    11.5658  11.5660  11.6901  11.6905  11.8210  12.1090

          k = 0.0000-0.2887 0.1957 ( 95551 PWs)   bands (ev):

   -62.2853 -62.2852 -62.2828 -62.2825 -62.2818 -62.2816 -62.2816 -62.2813
   -62.2804 -62.2802 -62.2802 -62.2799 -62.2799 -62.2794 -62.2789 -62.2789
   -62.2786 -62.2784 -35.7178 -35.7177 -35.7177 -35.7176 -35.7176 -35.7176
   -35.7175 -35.7175 -35.7175 -35.7174 -35.7174 -35.7173 -35.7173 -35.7172
   -35.7172 -35.7172 -35.7171 -35.7171 -35.7171 -35.7170 -35.7170 -35.7170
   -35.7169 -35.7169 -35.7168 -35.7168 -35.7168 -35.7168 -35.7167 -35.7167
   -35.7166 -35.7165 -35.7164 -35.7163 -35.7163 -35.7162 -35.7162 -35.7161
   -35.7159 -35.7159 -35.7158 -35.7158 -35.7157 -35.7156 -35.7155 -35.7155
   -35.7154 -35.7153 -35.7153 -35.7153 -35.7152 -35.7152 -35.7152 -35.7152
   -35.7152 -35.7151 -35.7150 -35.7149 -35.7149 -35.7149 -35.7148 -35.7148
   -35.7147 -35.7147 -35.7146 -35.7146 -35.7144 -35.7144 -35.7142 -35.7140
   -35.7117 -35.7117 -35.6776 -35.6776 -35.6771 -35.6771 -35.6770 -35.6770
   -35.6769 -35.6768 -35.6768 -35.6768 -35.6767 -35.6767 -35.6767 -35.6767
   -35.6766 -35.6766 -35.6766 -35.6766 -35.6765 -35.6764 -35.6764 -35.6764
   -35.6764 -35.6764 -35.6764 -35.6763 -35.6763 -35.6763 -35.6763 -35.6763
   -35.6762 -35.6762 -35.6762 -35.6761 -35.6760 -35.6760 -35.6760 -35.6760
   -35.6760 -35.6759 -35.6759 -35.6758 -35.6758 -35.6758 -35.6757 -35.6757
   -35.6757 -35.6756 -35.6756 -35.6756 -35.6755 -35.6754 -35.6754 -35.6754
   -35.6753 -35.6753 -35.6753 -35.6753 -35.6752 -35.6752 -35.6751 -35.6751
   -35.6750 -35.6749 -35.6748 -35.6747 -35.6747 -35.6746 -35.6745 -35.6745
   -35.6729 -35.6726 -35.6606 -35.6600 -35.6600 -35.6598 -35.6598 -35.6596
   -35.6595 -35.6595 -35.6594 -35.6593 -35.6593 -35.6592 -35.6592 -35.6590
   -35.6589 -35.6588 -35.6587 -35.6584 -35.6581 -35.6574 -35.6574 -35.6572
   -35.6572 -35.6569 -35.6569 -35.6568 -35.6567 -35.6566 -35.6566 -35.6565
   -35.6565 -35.6563 -35.6562 -35.6560 -35.6560 -35.6549 -26.5647 -26.5643
   -26.5503 -26.5503 -26.5500 -26.5497 -26.5479 -26.5479 -26.5476 -26.5472
   -26.5167 -26.5167 -26.5164 -26.5161 -26.4973 -26.4973 -26.4970 -26.4968
   -26.4946 -26.4941 -26.4529 -26.4527 -26.4512 -26.4512 -26.4509 -26.4507
   -26.4482 -26.4478 -26.4414 -26.4414 -26.4411 -26.4409 -26.4384 -26.4382
   -26.4331 -26.4331 -26.4329 -26.4328 -26.4316 -26.4312 -26.4258 -26.4258
   -26.4256 -26.4255 -26.4238 -26.4235 -26.4234 -26.4230 -26.4185 -26.4185
   -26.4183 -26.4182 -26.4149 -26.4145  -2.6322  -2.4892  -1.9771  -1.8468
    -1.7036  -1.7021  -1.5831  -1.5814  -1.4536  -1.2799  -1.2785  -1.2151
    -1.1846  -1.1830  -1.1460  -1.1225  -1.0638  -0.9857  -0.9850  -0.9358
    -0.8242  -0.8234  -0.8043  -0.8030  -0.7786  -0.7780  -0.7663  -0.7647
    -0.7174  -0.6648  -0.6641  -0.6246  -0.5340  -0.5334  -0.4938  -0.4931
     5.7060   5.9202   6.0984   6.2332   6.2336   6.3905   6.4076   6.4083
     6.4731   6.4742   6.4755   6.5594   6.5607   6.6547   6.6556   6.8083
     6.8091   6.9145   6.9152   7.0011   7.0014   7.0294   7.1298   7.1959
     7.2344   7.2356   7.2784   7.2792   7.3192   7.3196   7.5207   7.5214
     7.5562   7.6178   7.6391   7.6397   7.6726   7.8044   7.8049   7.9702
     7.9709   7.9940   7.9954   8.0459   8.0679   8.0683   8.1864   8.1870
     8.2295   8.2312   8.2850   8.3966   8.3984   8.5942   8.7015   8.7018
     8.8269   8.8276   8.8570   8.8590   8.9006   8.9441   8.9453   8.9646
     8.9837   8.9846   9.0781   9.1015   9.1524   9.1533   9.1544   9.4636
     9.4808   9.4855   9.5413   9.7846   9.7855   9.8535   9.9522   9.9533
     9.9735   9.9746   9.9768   9.9776   9.9797   9.9812  10.0180  10.0199
    10.0212  10.0333  10.0876  10.0981  10.1157  10.1164  10.1476  10.2743
    10.2754  10.2837  10.2873  10.2881  10.3252  10.5005  10.5661  10.5726
    10.5733  10.6646  10.6962  10.7797  10.9402  10.9480  10.9834  10.9843
    11.0200  11.0210  11.0471  11.0478  11.0691  11.0992  11.0999  11.1360
    11.5658  11.5661  11.6901  11.6904  11.8209  12.1091

          k =-0.0000 0.2887 0.1957 ( 95551 PWs)   bands (ev):

   -62.2853 -62.2852 -62.2828 -62.2825 -62.2818 -62.2816 -62.2816 -62.2813
   -62.2804 -62.2802 -62.2802 -62.2799 -62.2799 -62.2794 -62.2789 -62.2789
   -62.2786 -62.2784 -35.7178 -35.7177 -35.7177 -35.7176 -35.7176 -35.7176
   -35.7175 -35.7175 -35.7175 -35.7174 -35.7174 -35.7173 -35.7173 -35.7172
   -35.7172 -35.7172 -35.7171 -35.7171 -35.7171 -35.7170 -35.7170 -35.7170
   -35.7169 -35.7169 -35.7168 -35.7168 -35.7168 -35.7168 -35.7167 -35.7167
   -35.7166 -35.7165 -35.7164 -35.7163 -35.7163 -35.7162 -35.7162 -35.7161
   -35.7159 -35.7159 -35.7158 -35.7158 -35.7157 -35.7156 -35.7155 -35.7155
   -35.7154 -35.7153 -35.7153 -35.7153 -35.7152 -35.7152 -35.7152 -35.7152
   -35.7152 -35.7151 -35.7150 -35.7149 -35.7149 -35.7149 -35.7148 -35.7148
   -35.7147 -35.7147 -35.7146 -35.7146 -35.7144 -35.7144 -35.7142 -35.7140
   -35.7117 -35.7117 -35.6776 -35.6776 -35.6771 -35.6771 -35.6770 -35.6770
   -35.6769 -35.6768 -35.6768 -35.6768 -35.6767 -35.6767 -35.6767 -35.6767
   -35.6766 -35.6766 -35.6766 -35.6766 -35.6765 -35.6765 -35.6764 -35.6764
   -35.6764 -35.6764 -35.6763 -35.6763 -35.6763 -35.6763 -35.6763 -35.6763
   -35.6762 -35.6762 -35.6762 -35.6761 -35.6760 -35.6760 -35.6760 -35.6760
   -35.6760 -35.6759 -35.6759 -35.6758 -35.6758 -35.6758 -35.6757 -35.6757
   -35.6757 -35.6756 -35.6756 -35.6756 -35.6755 -35.6754 -35.6754 -35.6754
   -35.6753 -35.6753 -35.6753 -35.6753 -35.6752 -35.6752 -35.6751 -35.6751
   -35.6750 -35.6749 -35.6748 -35.6747 -35.6747 -35.6746 -35.6745 -35.6745
   -35.6729 -35.6726 -35.6606 -35.6600 -35.6600 -35.6598 -35.6598 -35.6596
   -35.6595 -35.6595 -35.6594 -35.6593 -35.6593 -35.6592 -35.6592 -35.6590
   -35.6589 -35.6588 -35.6587 -35.6584 -35.6581 -35.6574 -35.6574 -35.6572
   -35.6572 -35.6569 -35.6569 -35.6568 -35.6567 -35.6566 -35.6566 -35.6565
   -35.6565 -35.6563 -35.6562 -35.6560 -35.6560 -35.6549 -26.5647 -26.5643
   -26.5503 -26.5503 -26.5500 -26.5497 -26.5479 -26.5479 -26.5476 -26.5472
   -26.5167 -26.5167 -26.5164 -26.5161 -26.4973 -26.4973 -26.4970 -26.4968
   -26.4946 -26.4941 -26.4529 -26.4527 -26.4512 -26.4512 -26.4509 -26.4507
   -26.4482 -26.4478 -26.4414 -26.4414 -26.4411 -26.4409 -26.4384 -26.4382
   -26.4331 -26.4331 -26.4329 -26.4328 -26.4316 -26.4312 -26.4258 -26.4258
   -26.4256 -26.4255 -26.4238 -26.4235 -26.4234 -26.4230 -26.4185 -26.4185
   -26.4183 -26.4182 -26.4149 -26.4145  -2.6322  -2.4892  -1.9771  -1.8468
    -1.7036  -1.7021  -1.5831  -1.5814  -1.4536  -1.2799  -1.2785  -1.2151
    -1.1845  -1.1830  -1.1460  -1.1225  -1.0638  -0.9857  -0.9850  -0.9358
    -0.8242  -0.8234  -0.8043  -0.8030  -0.7786  -0.7780  -0.7663  -0.7647
    -0.7174  -0.6648  -0.6641  -0.6246  -0.5340  -0.5334  -0.4938  -0.4931
     5.7060   5.9202   6.0984   6.2330   6.2336   6.3905   6.4078   6.4083
     6.4730   6.4743   6.4755   6.5593   6.5607   6.6548   6.6557   6.8083
     6.8091   6.9145   6.9153   7.0008   7.0012   7.0296   7.1297   7.1960
     7.2342   7.2354   7.2790   7.2793   7.3187   7.3193   7.5213   7.5217
     7.5563   7.6178   7.6390   7.6399   7.6722   7.8043   7.8049   7.9702
     7.9713   7.9943   7.9950   8.0459   8.0676   8.0684   8.1864   8.1870
     8.2298   8.2310   8.2851   8.3964   8.3978   8.5942   8.7010   8.7029
     8.8268   8.8280   8.8575   8.8583   8.9006   8.9442   8.9451   8.9646
     8.9836   8.9843   9.0781   9.1016   9.1523   9.1532   9.1548   9.4636
     9.4808   9.4855   9.5413   9.7846   9.7855   9.8533   9.9519   9.9533
     9.9736   9.9746   9.9769   9.9778   9.9800   9.9807  10.0179  10.0200
    10.0216  10.0333  10.0876  10.0983  10.1151  10.1166  10.1477  10.2745
    10.2752  10.2837  10.2869  10.2878  10.3251  10.5005  10.5661  10.5730
    10.5735  10.6642  10.6962  10.7796  10.9403  10.9480  10.9834  10.9839
    11.0202  11.0211  11.0471  11.0479  11.0696  11.0990  11.0998  11.1358
    11.5658  11.5660  11.6901  11.6904  11.8209  12.1091

     highest occupied level (ev):    12.1092

!    total energy              =  -11463.73764387 Ry
     estimated scf accuracy    <          6.3E-11 Ry

     The total energy is the sum of the following terms:
     one-electron contribution =   -5892.91494443 Ry
     hartree contribution      =    3183.62706566 Ry
     xc contribution           =   -2339.57051049 Ry
     ewald contribution        =   -6412.94524426 Ry
     Dispersion Correction     =      -1.93401035 Ry

     convergence has been achieved in  26 iterations

     Forces acting on atoms (cartesian axes, Ry/au):

     atom    1 type  1   force =    -0.00000489   -0.00000004    0.00002822
     atom    2 type  1   force =     0.00000011    0.00000460   -0.00000347
     atom    3 type  1   force =    -0.00000303    0.00000318   -0.00000308
     atom    4 type  1   force =    -0.00000417   -0.00000171   -0.00000017
     atom    5 type  1   force =     0.00000434    0.00000026   -0.00000642
     atom    6 type  1   force =     0.00000013   -0.00000004    0.00000124
     atom    7 type  1   force =    -0.00000481   -0.00000200   -0.00000035
     atom    8 type  1   force =     0.00000219   -0.00000011    0.00000538
     atom    9 type  1   force =     0.00000049   -0.00000499   -0.00000618
     atom   10 type  1   force =    -0.00180848    0.00087824   -0.00192687
     atom   11 type  1   force =    -0.00000925   -0.00002087   -0.00005413
     atom   12 type  1   force =    -0.00000679    0.00016186   -0.00062139
     atom   13 type  1   force =    -0.00028722   -0.00104864   -0.00128218
     atom   14 type  1   force =    -0.00002978   -0.00006493   -0.00009319
     atom   15 type  1   force =     0.00001147    0.00004186   -0.00003313
     atom   16 type  1   force =     0.00001033    0.00001148   -0.00005491
     atom   17 type  1   force =    -0.00002537    0.00000956   -0.00005335
     atom   18 type  1   force =     0.00008339    0.00002390   -0.00006337
     atom   19 type  2   force =     0.00247539    0.00000999    0.00468829
     atom   20 type  2   force =    -0.00014924    0.00000075    0.00049015
     atom   21 type  2   force =    -0.00021450   -0.00001069    0.00054178
     atom   22 type  2   force =    -0.00003754    0.00012590    0.00053185
     atom   23 type  2   force =    -0.00001466   -0.00006569    0.00049991
     atom   24 type  2   force =     0.00000553    0.00000007    0.00041446
     atom   25 type  2   force =    -0.00000586    0.00005867    0.00050605
     atom   26 type  2   force =     0.00000560   -0.00000009    0.00041490
     atom   27 type  2   force =    -0.00004611   -0.00010956    0.00052574
     atom   28 type  2   force =     0.00002907   -0.00001445   -0.00044261
     atom   29 type  2   force =    -0.00000122    0.00000176   -0.00041244
     atom   30 type  2   force =    -0.00005802   -0.00003588   -0.00051149
     atom   31 type  2   force =     0.00000403    0.00005022   -0.00047680
     atom   32 type  2   force =     0.00000315    0.00000013   -0.00040734
     atom   33 type  2   force =    -0.00000225    0.00000305   -0.00041140
     atom   34 type  2   force =    -0.00000212   -0.00000045   -0.00041368
     atom   35 type  2   force =     0.00000091   -0.00000110   -0.00041116
     atom   36 type  2   force =     0.00000290   -0.00000308   -0.00040936
     atom   37 type  2   force =     0.00000033   -0.00000025    0.00041192
     atom   38 type  2   force =     0.00000153   -0.00000016    0.00041162
     atom   39 type  2   force =    -0.00000020    0.00000004    0.00041194
     atom   40 type  2   force =    -0.00000021    0.00000029    0.00041187
     atom   41 type  2   force =    -0.00000063   -0.00000082    0.00041401
     atom   42 type  2   force =     0.00000151   -0.00000039    0.00041213
     atom   43 type  2   force =     0.00000066   -0.00000046    0.00041155
     atom   44 type  2   force =     0.00000029    0.00000082    0.00041163
     atom   45 type  2   force =     0.00000076    0.00000132    0.00041308
     atom   46 type  2   force =     0.00005159   -0.00000002   -0.00097537
     atom   47 type  2   force =    -0.00007040   -0.00006203   -0.00044842
     atom   48 type  2   force =     0.00000832   -0.00000858   -0.00038744
     atom   49 type  2   force =     0.00007333   -0.00001158   -0.00042629
     atom   50 type  2   force =    -0.00002712   -0.00002151   -0.00041013
     atom   51 type  2   force =    -0.00000523    0.00000011   -0.00038756
     atom   52 type  2   force =     0.00003404    0.00010883   -0.00045651
     atom   53 type  2   force =    -0.00000521   -0.00000011   -0.00038812
     atom   54 type  2   force =     0.00001289   -0.00000667   -0.00037940

     Total force =     0.006838     Total SCF correction =     0.000041


     Computing stress (Cartesian axis) and pressure

          total   stress  (Ry/bohr**3)                   (kbar)     P=      -34.13
  -0.00028012   0.00000020  -0.00000073          -41.21        0.03       -0.11
   0.00000020  -0.00028012  -0.00000000            0.03      -41.21       -0.00
  -0.00000073  -0.00000000  -0.00013572           -0.11       -0.00      -19.96


     Writing all to output data dir ./WSe.save/ :
     XML data file, charge density, pseudopotentials, collected wavefunctions
 
     init_run     :     11.43s CPU     13.29s WALL (       1 calls)
     electrons    :    861.89s CPU   1025.45s WALL (       1 calls)
     forces       :      7.81s CPU      8.57s WALL (       1 calls)
     force_london :      0.04s CPU      0.04s WALL (       1 calls)
     stress       :    121.23s CPU    126.84s WALL (       1 calls)
     stres_london :      0.04s CPU      0.04s WALL (       1 calls)

     Called by init_run:
     wfcinit      :     10.45s CPU     12.19s WALL (       1 calls)
     potinit      :      0.07s CPU      0.10s WALL (       1 calls)
     hinit0       :      0.46s CPU      0.51s WALL (       1 calls)

     Called by electrons:
     c_bands      :    810.74s CPU    966.10s WALL (      27 calls)
     sum_band     :     48.49s CPU     55.72s WALL (      27 calls)
     v_of_rho     :      1.85s CPU      2.06s WALL (      27 calls)
     mix_rho      :      0.64s CPU      0.75s WALL (      27 calls)
     energy_londo :      0.04s CPU      0.04s WALL (       1 calls)

     Called by c_bands:
     init_us_2    :     10.52s CPU     10.60s WALL (     171 calls)
     init_us_2:cp :     10.51s CPU     10.60s WALL (     171 calls)
     cegterg      :    774.28s CPU    917.17s WALL (      81 calls)

     Called by *egterg:
     cdiaghg      :     46.83s CPU    119.21s WALL (     463 calls)
     h_psi        :    449.13s CPU    488.85s WALL (     469 calls)
     g_psi        :      1.89s CPU      1.96s WALL (     385 calls)

     Called by h_psi:
     h_psi:calbec :    116.01s CPU    122.95s WALL (     469 calls)
     vloc_psi     :    224.67s CPU    256.04s WALL (     469 calls)
     add_vuspsi   :    103.89s CPU    104.55s WALL (     469 calls)

     General routines
     calbec       :    123.39s CPU    133.07s WALL (     484 calls)
     fft          :      1.36s CPU      1.56s WALL (     295 calls)
     ffts         :      0.08s CPU      0.10s WALL (      27 calls)
     fftw         :    233.82s CPU    266.50s WALL (  210074 calls)
 
     Parallel routines
     fft_scatt_xy :     31.37s CPU     35.04s WALL (  210396 calls)
     fft_scatt_yz :    128.48s CPU    149.35s WALL (  210396 calls)
 
     PWSCF        :  16m44.35s CPU  19m50.33s WALL

 
   This run was terminated on:  18: 8:22   5Nov2024            

=------------------------------------------------------------------------------=
   JOB DONE.
=------------------------------------------------------------------------------=
