
     Program PWSCF v.7.3 starts on  5Nov2024 at 17: 9:18 

     This program is part of the open-source Quantum ESPRESSO suite
     for quantum simulation of materials; please cite
         "P. Giannozzi et al., J. Phys.:Condens. Matter 21 395502 (2009);
         "P. Giannozzi et al., J. Phys.:Condens. Matter 29 465901 (2017);
         "P. Giannozzi et al., J. Chem. Phys. 152 154105 (2020);
          URL http://www.quantum-espresso.org", 
     in publications or presentations arising from this work. More details at
     http://www.quantum-espresso.org/quote

     Parallel version (MPI & OpenMP), running on     256 processor cores
     Number of MPI processes:               256
     Threads/MPI process:                     1

     MPI processes distributed on     1 nodes
     476850 MiB available memory on the printing compute node when the environment starts
 
     Waiting for input...
     Reading input from standard input

     Current dimensions of program PWSCF are:
     Max number of different atomic species (ntypx) = 10
     Max number of k-points (npk) =  40000
     Max angular momentum in pseudopotentials (lmaxx) =  4

     File ./WSe.fire deleted, as requested
 
     K-points division:     npool     =       4
     R & G space division:  proc/nbgrp/npool/nimage =      64
     Subspace diagonalization in iterative solution of the eigenvalue problem:
     one sub-group per band group will be used
     scalapack distributed-memory algorithm (size of sub-group:  4*  4 procs)

 
     Parallelization info
     --------------------
     sticks:   dense  smooth     PW     G-vecs:    dense   smooth      PW
     Min         127     127     32                11935    11935    1572
     Max         128     128     33                11944    11944    1585
     Sum        8161    8161   2107               764097   764097  101141
 
     Using Pencil Decomposition
 


     bravais-lattice index     =            0
     lattice parameter (alat)  =      19.2612  a.u.
     unit-cell volume          =    7907.2529 (a.u.)^3
     number of atoms/cell      =           54
     number of atomic types    =            2
     number of electrons       =       828.00
     number of Kohn-Sham states=          414
     kinetic-energy cutoff     =      80.0000  Ry
     charge density cutoff     =     320.0000  Ry
     scf convergence threshold =      1.0E-10
     mixing beta               =       0.5000
     number of iterations used =            8  plain     mixing
     Exchange-correlation= PBE
                           (   1   4   3   4   0   0   0)

     celldm(1)=  19.261185  celldm(2)=   0.000000  celldm(3)=   0.000000
     celldm(4)=   0.000000  celldm(5)=   0.000000  celldm(6)=   0.000000

     crystal axes: (cart. coord. in units of alat)
               a(1) = (   1.000000   0.000000   0.000000 )  
               a(2) = (  -0.500000   0.866025   0.000000 )  
               a(3) = (   0.000000   0.000000   1.277750 )  

     reciprocal axes: (cart. coord. in units 2 pi/alat)
               b(1) = (  1.000000  0.577350  0.000000 )  
               b(2) = (  0.000000  1.154701  0.000000 )  
               b(3) = (  0.000000  0.000000  0.782626 )  


     PseudoPot. # 1 for W  read from file:
     /users/rkarkee/pbe_pseudo/W.upf
     MD5 check sum: cb94e439a9e4ea809831d6e90c63864e
     Pseudo is Norm-conserving + core correction, Zval = 14.0
     Generated using ONCVPSP code by D. R. Hamann
     Using radial grid of 1396 points,  8 beta functions with: 
                l(1) =   0
                l(2) =   0
                l(3) =   1
                l(4) =   1
                l(5) =   2
                l(6) =   2
                l(7) =   3
                l(8) =   3

     PseudoPot. # 2 for Se read from file:
     /users/rkarkee/pbe_pseudo/Se.upf
     MD5 check sum: 3cc46b3642295b3f4fdae63b742ce36d
     Pseudo is Norm-conserving + core correction, Zval = 16.0
     Generated using ONCVPSP code by D. R. Hamann
     Using radial grid of 1214 points,  6 beta functions with: 
                l(1) =   0
                l(2) =   0
                l(3) =   1
                l(4) =   1
                l(5) =   2
                l(6) =   2

     atomic species   valence    mass     pseudopotential
     W                14.00   183.84000     W ( 1.00)
     Se               16.00    78.96000     Se( 1.00)

     No symmetry found



   Cartesian axes

     site n.     atom                  positions (alat units)
         1        W      tau(   1) = (   0.0006400   0.1924501   0.9591304  )
         2        W      tau(   2) = (   0.3333333   0.1924501   0.9583127  )
         3        W      tau(   3) = (   0.6666667   0.1924501   0.9583127  )
         4        W      tau(   4) = (  -0.1666667   0.4811252   0.9583127  )
         5        W      tau(   5) = (   0.1666667   0.4811252   0.9583127  )
         6        W      tau(   6) = (   0.5000000   0.4811252   0.9583127  )
         7        W      tau(   7) = (  -0.3333333   0.7698004   0.9583127  )
         8        W      tau(   8) = (   0.0000000   0.7698004   0.9583127  )
         9        W      tau(   9) = (   0.3333333   0.7698004   0.9583127  )
        10        W      tau(  10) = (   0.1666667   0.0962250   0.3194376  )
        11        W      tau(  11) = (   0.5000000   0.0962250   0.3194376  )
        12        W      tau(  12) = (   0.8333333   0.0962250   0.3194376  )
        13        W      tau(  13) = (  -0.0000000   0.3849002   0.3194376  )
        14        W      tau(  14) = (   0.3333333   0.3849002   0.3194376  )
        15        W      tau(  15) = (   0.6666667   0.3849002   0.3194376  )
        16        W      tau(  16) = (  -0.1666667   0.6735753   0.3194376  )
        17        W      tau(  17) = (   0.1666667   0.6735753   0.3194376  )
        18        W      tau(  18) = (   0.5000000   0.6735753   0.3194376  )
        19        Se     tau(  19) = (  -0.0000000   0.1924501   0.1576696  )
        20        Se     tau(  20) = (   0.3333333   0.1924501   0.1576696  )
        21        Se     tau(  21) = (   0.6666667   0.1924501   0.1576696  )
        22        Se     tau(  22) = (  -0.1666667   0.4811252   0.1576696  )
        23        Se     tau(  23) = (   0.1666667   0.4811252   0.1576696  )
        24        Se     tau(  24) = (   0.5000000   0.4811252   0.1576696  )
        25        Se     tau(  25) = (  -0.3333333   0.7698004   0.1576696  )
        26        Se     tau(  26) = (   0.0000000   0.7698004   0.1576696  )
        27        Se     tau(  27) = (   0.3333333   0.7698004   0.1576696  )
        28        Se     tau(  28) = (   0.1666667   0.0962250   1.1200807  )
        29        Se     tau(  29) = (   0.5000000   0.0962250   1.1200807  )
        30        Se     tau(  30) = (   0.8333333   0.0962250   1.1200807  )
        31        Se     tau(  31) = (  -0.0000000   0.3849002   1.1200807  )
        32        Se     tau(  32) = (   0.3333333   0.3849002   1.1200807  )
        33        Se     tau(  33) = (   0.6666667   0.3849002   1.1200807  )
        34        Se     tau(  34) = (  -0.1666667   0.6735753   1.1200807  )
        35        Se     tau(  35) = (   0.1666667   0.6735753   1.1200807  )
        36        Se     tau(  36) = (   0.5000000   0.6735753   1.1200807  )
        37        Se     tau(  37) = (   0.1666667   0.0962250   0.7965447  )
        38        Se     tau(  38) = (   0.5000000   0.0962250   0.7965447  )
        39        Se     tau(  39) = (   0.8333333   0.0962250   0.7965447  )
        40        Se     tau(  40) = (  -0.0000000   0.3849002   0.7965447  )
        41        Se     tau(  41) = (   0.3333333   0.3849002   0.7965447  )
        42        Se     tau(  42) = (   0.6666667   0.3849002   0.7965447  )
        43        Se     tau(  43) = (  -0.1666667   0.6735753   0.7965447  )
        44        Se     tau(  44) = (   0.1666667   0.6735753   0.7965447  )
        45        Se     tau(  45) = (   0.5000000   0.6735753   0.7965447  )
        46        Se     tau(  46) = (  -0.0000000   0.1924501   0.4812056  )
        47        Se     tau(  47) = (   0.3333333   0.1924501   0.4812056  )
        48        Se     tau(  48) = (   0.6666667   0.1924501   0.4812056  )
        49        Se     tau(  49) = (  -0.1666667   0.4811252   0.4812056  )
        50        Se     tau(  50) = (   0.1666667   0.4811252   0.4812056  )
        51        Se     tau(  51) = (   0.5000000   0.4811252   0.4812056  )
        52        Se     tau(  52) = (  -0.3333333   0.7698004   0.4812056  )
        53        Se     tau(  53) = (   0.0000000   0.7698004   0.4812056  )
        54        Se     tau(  54) = (   0.3333333   0.7698004   0.4812056  )

     -------------------------------------------------
     Parameters for Dispersion (Grimme-D2) Correction:
     -------------------------------------------------
       atom      VdW radius       C_6     

        W          3.349       2818.308
        Se         3.347        438.498

     number of k points=    12
                       cart. coord. in units 2pi/alat
        k(    1) = (   0.2500000   0.4330127   0.1956564), wk =   0.1666667
        k(    2) = (   0.2500000  -0.1443376   0.1956564), wk =   0.1666667
        k(    3) = (  -0.2500000  -0.4330127   0.1956564), wk =   0.1666667
        k(    4) = (  -0.2500000   0.4330127  -0.1956564), wk =   0.1666667
        k(    5) = (   0.2500000  -0.4330127  -0.1956564), wk =   0.1666667
        k(    6) = (   0.5000000  -0.0000000   0.1956564), wk =   0.1666667
        k(    7) = (  -0.5000000   0.0000000   0.1956564), wk =   0.1666667
        k(    8) = (  -0.2500000   0.1443376   0.1956564), wk =   0.1666667
        k(    9) = (  -0.2500000  -0.1443376  -0.1956564), wk =   0.1666667
        k(   10) = (   0.2500000   0.1443376  -0.1956564), wk =   0.1666667
        k(   11) = (   0.0000000  -0.2886751   0.1956564), wk =   0.1666667
        k(   12) = (  -0.0000000   0.2886751   0.1956564), wk =   0.1666667

     Dense  grid:   764097 G-vectors     FFT dimensions: ( 120, 120, 144)

     Estimated max dynamical RAM per process >     128.15 MB

     Estimated total dynamical RAM >      31.49 GB

     Initial potential from superposition of free atoms

     starting charge     827.9882, renormalised to     828.0000
     Starting wfcs are  504 randomized atomic wfcs

     total cpu time spent up to now is       14.4 secs

     Self-consistent Calculation

     iteration #  1     ecut=    80.00 Ry     beta= 0.50
     Davidson diagonalization with overlap
     ethr =  1.00E-02,  avg # of iterations =  2.0

     Threshold (ethr) on eigenvalues was too large:
     Diagonalizing with lowered threshold

     Davidson diagonalization with overlap
     ethr =  8.84E-05,  avg # of iterations =  5.5

     total cpu time spent up to now is       96.5 secs

     total energy              =  -11463.59325195 Ry
     estimated scf accuracy    <       1.06176886 Ry

     iteration #  2     ecut=    80.00 Ry     beta= 0.50
     Davidson diagonalization with overlap
     ethr =  1.28E-04,  avg # of iterations =  2.0

     total cpu time spent up to now is      129.7 secs

     total energy              =  -11463.71433532 Ry
     estimated scf accuracy    <       0.11250154 Ry

     iteration #  3     ecut=    80.00 Ry     beta= 0.50
     Davidson diagonalization with overlap
     ethr =  1.36E-05,  avg # of iterations =  6.0

     total cpu time spent up to now is      176.9 secs

     total energy              =  -11463.71643890 Ry
     estimated scf accuracy    <       0.10637328 Ry

     iteration #  4     ecut=    80.00 Ry     beta= 0.50
     Davidson diagonalization with overlap
     ethr =  1.28E-05,  avg # of iterations =  5.5

     total cpu time spent up to now is      214.4 secs

     total energy              =  -11463.73655113 Ry
     estimated scf accuracy    <       0.00778221 Ry

     iteration #  5     ecut=    80.00 Ry     beta= 0.50
     Davidson diagonalization with overlap
     ethr =  9.40E-07,  avg # of iterations =  5.8

     total cpu time spent up to now is      261.5 secs

     total energy              =  -11463.73724852 Ry
     estimated scf accuracy    <       0.01303264 Ry

     iteration #  6     ecut=    80.00 Ry     beta= 0.50
     Davidson diagonalization with overlap
     ethr =  9.40E-07,  avg # of iterations =  3.0

     total cpu time spent up to now is      293.9 secs

     total energy              =  -11463.73537330 Ry
     estimated scf accuracy    <       0.00510114 Ry

     iteration #  7     ecut=    80.00 Ry     beta= 0.50
     Davidson diagonalization with overlap
     ethr =  6.16E-07,  avg # of iterations =  8.0

     total cpu time spent up to now is      344.2 secs

     total energy              =  -11463.73815552 Ry
     estimated scf accuracy    <       0.01111726 Ry

     iteration #  8     ecut=    80.00 Ry     beta= 0.50
     Davidson diagonalization with overlap
     ethr =  6.16E-07,  avg # of iterations =  2.0

     total cpu time spent up to now is      373.1 secs

     total energy              =  -11463.73651321 Ry
     estimated scf accuracy    <       0.00679680 Ry

     iteration #  9     ecut=    80.00 Ry     beta= 0.50
     Davidson diagonalization with overlap
     ethr =  6.16E-07,  avg # of iterations =  6.0

     total cpu time spent up to now is      411.0 secs

     total energy              =  -11463.73755145 Ry
     estimated scf accuracy    <       0.00012839 Ry

     iteration # 10     ecut=    80.00 Ry     beta= 0.50
     Davidson diagonalization with overlap
     ethr =  1.55E-08,  avg # of iterations =  6.1

     total cpu time spent up to now is      458.5 secs

     total energy              =  -11463.73759845 Ry
     estimated scf accuracy    <       0.00004692 Ry

     iteration # 11     ecut=    80.00 Ry     beta= 0.50
     Davidson diagonalization with overlap
     ethr =  5.67E-09,  avg # of iterations =  7.1

     total cpu time spent up to now is      506.6 secs

     total energy              =  -11463.73761310 Ry
     estimated scf accuracy    <       0.00011650 Ry

     iteration # 12     ecut=    80.00 Ry     beta= 0.50
     Davidson diagonalization with overlap
     ethr =  5.67E-09,  avg # of iterations =  2.9

     total cpu time spent up to now is      539.1 secs

     total energy              =  -11463.73760211 Ry
     estimated scf accuracy    <       0.00005040 Ry

     iteration # 13     ecut=    80.00 Ry     beta= 0.50
     Davidson diagonalization with overlap
     ethr =  5.67E-09,  avg # of iterations =  6.0

     total cpu time spent up to now is      580.6 secs

     total energy              =  -11463.73761355 Ry
     estimated scf accuracy    <       0.00000658 Ry

     iteration # 14     ecut=    80.00 Ry     beta= 0.50
     Davidson diagonalization with overlap
     ethr =  7.94E-10,  avg # of iterations =  2.0

     total cpu time spent up to now is      610.8 secs

     total energy              =  -11463.73761281 Ry
     estimated scf accuracy    <       0.00000390 Ry

     iteration # 15     ecut=    80.00 Ry     beta= 0.50
     Davidson diagonalization with overlap
     ethr =  4.71E-10,  avg # of iterations =  6.0

     total cpu time spent up to now is      650.5 secs

     total energy              =  -11463.73761358 Ry
     estimated scf accuracy    <       0.00000029 Ry

     iteration # 16     ecut=    80.00 Ry     beta= 0.50
     Davidson diagonalization with overlap
     ethr =  3.46E-11,  avg # of iterations =  5.0

     total cpu time spent up to now is      686.1 secs

     total energy              =  -11463.73761355 Ry
     estimated scf accuracy    <       0.00000016 Ry

     iteration # 17     ecut=    80.00 Ry     beta= 0.50
     Davidson diagonalization with overlap
     ethr =  1.90E-11,  avg # of iterations =  7.0

     total cpu time spent up to now is      730.0 secs

     total energy              =  -11463.73761359 Ry
     estimated scf accuracy    <       0.00000012 Ry

     iteration # 18     ecut=    80.00 Ry     beta= 0.50
     Davidson diagonalization with overlap
     ethr =  1.47E-11,  avg # of iterations =  3.0

     total cpu time spent up to now is      760.1 secs

     total energy              =  -11463.73761359 Ry
     estimated scf accuracy    <       0.00000004 Ry

     iteration # 19     ecut=    80.00 Ry     beta= 0.50
     Davidson diagonalization with overlap
     ethr =  5.06E-12,  avg # of iterations =  6.7

     total cpu time spent up to now is      801.0 secs

     total energy              =  -11463.73761360 Ry
     estimated scf accuracy    <          4.8E-09 Ry

     iteration # 20     ecut=    80.00 Ry     beta= 0.50
     Davidson diagonalization with overlap
     ethr =  5.85E-13,  avg # of iterations =  7.0

     total cpu time spent up to now is      844.5 secs

     total energy              =  -11463.73761360 Ry
     estimated scf accuracy    <          3.8E-09 Ry

     iteration # 21     ecut=    80.00 Ry     beta= 0.50
     Davidson diagonalization with overlap
     ethr =  4.59E-13,  avg # of iterations =  6.0

     total cpu time spent up to now is      880.3 secs

     total energy              =  -11463.73761360 Ry
     estimated scf accuracy    <          4.8E-10 Ry

     iteration # 22     ecut=    80.00 Ry     beta= 0.50
     Davidson diagonalization with overlap
     ethr =  1.00E-13,  avg # of iterations =  7.0

     total cpu time spent up to now is      919.4 secs

     total energy              =  -11463.73761360 Ry
     estimated scf accuracy    <          4.1E-10 Ry

     iteration # 23     ecut=    80.00 Ry     beta= 0.50
     Davidson diagonalization with overlap
     ethr =  1.00E-13,  avg # of iterations =  2.0

     total cpu time spent up to now is      947.5 secs

     total energy              =  -11463.73761360 Ry
     estimated scf accuracy    <          1.9E-10 Ry

     iteration # 24     ecut=    80.00 Ry     beta= 0.50
     Davidson diagonalization with overlap
     ethr =  1.00E-13,  avg # of iterations =  4.7

     total cpu time spent up to now is      978.6 secs

     End of self-consistent calculation

          k = 0.2500 0.4330 0.1957 ( 95526 PWs)   bands (ev):

   -62.2842 -62.2842 -62.2830 -62.2829 -62.2829 -62.2827 -62.2804 -62.2802
   -62.2802 -62.2800 -62.2795 -62.2793 -62.2792 -62.2792 -62.2792 -62.2789
   -62.2789 -62.2787 -35.7204 -35.7203 -35.7185 -35.7183 -35.7178 -35.7178
   -35.7177 -35.7175 -35.7175 -35.7174 -35.7174 -35.7173 -35.7173 -35.7173
   -35.7173 -35.7172 -35.7171 -35.7171 -35.7171 -35.7171 -35.7171 -35.7171
   -35.7170 -35.7169 -35.7169 -35.7168 -35.7168 -35.7167 -35.7167 -35.7166
   -35.7166 -35.7166 -35.7165 -35.7165 -35.7164 -35.7164 -35.7163 -35.7163
   -35.7163 -35.7162 -35.7162 -35.7161 -35.7160 -35.7159 -35.7159 -35.7158
   -35.7156 -35.7154 -35.7153 -35.7153 -35.7152 -35.7152 -35.7151 -35.7150
   -35.7150 -35.7150 -35.7149 -35.7148 -35.7147 -35.7147 -35.7146 -35.7146
   -35.7146 -35.7145 -35.7143 -35.7143 -35.7142 -35.7141 -35.7139 -35.7137
   -35.7121 -35.7119 -35.6801 -35.6797 -35.6781 -35.6776 -35.6773 -35.6772
   -35.6772 -35.6772 -35.6771 -35.6771 -35.6769 -35.6769 -35.6769 -35.6768
   -35.6768 -35.6768 -35.6768 -35.6767 -35.6766 -35.6766 -35.6765 -35.6765
   -35.6764 -35.6764 -35.6764 -35.6763 -35.6763 -35.6763 -35.6762 -35.6762
   -35.6762 -35.6762 -35.6761 -35.6761 -35.6761 -35.6761 -35.6761 -35.6760
   -35.6760 -35.6759 -35.6759 -35.6758 -35.6758 -35.6757 -35.6757 -35.6756
   -35.6755 -35.6755 -35.6755 -35.6754 -35.6753 -35.6753 -35.6752 -35.6752
   -35.6752 -35.6752 -35.6752 -35.6751 -35.6751 -35.6751 -35.6750 -35.6749
   -35.6749 -35.6749 -35.6749 -35.6748 -35.6747 -35.6745 -35.6744 -35.6738
   -35.6724 -35.6720 -35.6623 -35.6603 -35.6601 -35.6601 -35.6599 -35.6599
   -35.6598 -35.6596 -35.6594 -35.6593 -35.6593 -35.6592 -35.6591 -35.6591
   -35.6591 -35.6590 -35.6588 -35.6583 -35.6579 -35.6576 -35.6575 -35.6573
   -35.6573 -35.6570 -35.6568 -35.6567 -35.6566 -35.6564 -35.6564 -35.6564
   -35.6564 -35.6563 -35.6563 -35.6561 -35.6560 -35.6540 -26.5695 -26.5693
   -26.5693 -26.5691 -26.5622 -26.5621 -26.5454 -26.5453 -26.5354 -26.5351
   -26.5351 -26.5349 -26.4811 -26.4810 -26.4777 -26.4774 -26.4774 -26.4772
   -26.4757 -26.4757 -26.4595 -26.4594 -26.4594 -26.4593 -26.4569 -26.4566
   -26.4566 -26.4564 -26.4485 -26.4485 -26.4433 -26.4433 -26.4414 -26.4412
   -26.4412 -26.4411 -26.4301 -26.4298 -26.4298 -26.4296 -26.4269 -26.4267
   -26.4267 -26.4265 -26.4216 -26.4214 -26.4213 -26.4213 -26.4213 -26.4210
   -26.4201 -26.4201 -26.4194 -26.4193  -2.4558  -2.3153  -2.1278  -2.1269
    -1.9935  -1.9925  -1.3636  -1.3578  -1.3567  -1.2557  -1.2546  -1.1977
    -1.1969  -1.1381  -1.0227  -0.9985  -0.9976  -0.9969  -0.9961  -0.9495
    -0.9324  -0.9315  -0.8722  -0.8243  -0.8127  -0.8118  -0.6870  -0.6860
    -0.6448  -0.6435  -0.6422  -0.5753  -0.5745  -0.5736  -0.5614  -0.5255
     5.8491   5.8497   5.9323   6.0218   6.0225   6.0692   6.2230   6.3325
     6.3337   6.5113   6.5602   6.6049   6.6082   6.6090   6.7390   6.7395
     6.9150   6.9527   6.9664   6.9677   7.0182   7.0189   7.0663   7.0671
     7.0973   7.2001   7.3615   7.3623   7.4971   7.4980   7.6375   7.6383
     7.6972   7.7049   7.7060   7.7521   7.8653   7.8658   7.8677   7.8686
     7.8839   7.9174   7.9181   8.0441   8.0625   8.0633   8.4559   8.5346
     8.5364   8.5384   8.5398   8.5945   8.6201   8.6463   8.6696   8.7841
     8.7846   8.7856   8.8275   8.8284   8.8575   8.8872   8.8881   8.9082
     8.9134   8.9514   8.9533   9.0939   9.2847   9.3479   9.3501   9.4052
     9.4061   9.4786   9.4808   9.4931   9.4941   9.5981   9.6147   9.6328
     9.8142   9.8382   9.8401   9.8694   9.8704   9.8719   9.8732   9.8972
     9.9638   9.9746   9.9749  10.0293  10.0489  10.0966  10.0975  10.1723
    10.1728  10.1978  10.3241  10.3243  10.4056  10.4061  10.5155  10.5158
    10.5658  10.9153  10.9159  11.0288  11.1379  11.1389  11.1552  11.1558
    11.1609  11.1615  11.2875  11.2885  11.2914  11.2924  11.3032  11.3036
    11.3211  11.3816  11.3921  11.5467  11.6439  11.7840

          k = 0.2500-0.1443 0.1957 ( 95551 PWs)   bands (ev):

   -62.2850 -62.2850 -62.2823 -62.2823 -62.2814 -62.2813 -62.2813 -62.2813
   -62.2801 -62.2800 -62.2800 -62.2800 -62.2796 -62.2796 -62.2787 -62.2787
   -62.2786 -62.2785 -35.7204 -35.7203 -35.7185 -35.7184 -35.7180 -35.7178
   -35.7177 -35.7176 -35.7175 -35.7174 -35.7174 -35.7174 -35.7173 -35.7173
   -35.7173 -35.7173 -35.7173 -35.7172 -35.7171 -35.7171 -35.7171 -35.7170
   -35.7170 -35.7170 -35.7170 -35.7169 -35.7168 -35.7168 -35.7168 -35.7168
   -35.7167 -35.7166 -35.7166 -35.7165 -35.7164 -35.7163 -35.7160 -35.7160
   -35.7159 -35.7159 -35.7159 -35.7158 -35.7157 -35.7156 -35.7156 -35.7156
   -35.7156 -35.7154 -35.7153 -35.7153 -35.7152 -35.7151 -35.7151 -35.7151
   -35.7150 -35.7150 -35.7150 -35.7149 -35.7149 -35.7149 -35.7149 -35.7147
   -35.7147 -35.7147 -35.7146 -35.7144 -35.7144 -35.7140 -35.7139 -35.7137
   -35.7121 -35.7120 -35.6801 -35.6797 -35.6781 -35.6776 -35.6774 -35.6773
   -35.6773 -35.6772 -35.6770 -35.6770 -35.6769 -35.6769 -35.6768 -35.6767
   -35.6767 -35.6767 -35.6766 -35.6766 -35.6766 -35.6765 -35.6765 -35.6764
   -35.6764 -35.6764 -35.6764 -35.6764 -35.6763 -35.6763 -35.6763 -35.6763
   -35.6762 -35.6762 -35.6762 -35.6761 -35.6761 -35.6761 -35.6761 -35.6760
   -35.6760 -35.6759 -35.6759 -35.6758 -35.6758 -35.6758 -35.6758 -35.6757
   -35.6757 -35.6756 -35.6756 -35.6755 -35.6754 -35.6754 -35.6753 -35.6752
   -35.6751 -35.6751 -35.6751 -35.6751 -35.6750 -35.6750 -35.6750 -35.6750
   -35.6749 -35.6748 -35.6748 -35.6747 -35.6747 -35.6745 -35.6744 -35.6738
   -35.6724 -35.6720 -35.6623 -35.6604 -35.6603 -35.6600 -35.6598 -35.6597
   -35.6596 -35.6595 -35.6595 -35.6595 -35.6593 -35.6593 -35.6592 -35.6592
   -35.6590 -35.6590 -35.6588 -35.6583 -35.6579 -35.6578 -35.6575 -35.6572
   -35.6569 -35.6569 -35.6569 -35.6567 -35.6566 -35.6566 -35.6565 -35.6565
   -35.6563 -35.6563 -35.6563 -35.6561 -35.6560 -35.6540 -26.5646 -26.5645
   -26.5503 -26.5500 -26.5500 -26.5498 -26.5480 -26.5476 -26.5476 -26.5472
   -26.5167 -26.5165 -26.5165 -26.5162 -26.4973 -26.4971 -26.4971 -26.4969
   -26.4944 -26.4943 -26.4527 -26.4527 -26.4512 -26.4510 -26.4510 -26.4508
   -26.4480 -26.4480 -26.4414 -26.4412 -26.4412 -26.4410 -26.4382 -26.4382
   -26.4329 -26.4328 -26.4328 -26.4328 -26.4314 -26.4313 -26.4256 -26.4255
   -26.4255 -26.4255 -26.4236 -26.4236 -26.4232 -26.4232 -26.4183 -26.4183
   -26.4182 -26.4182 -26.4147 -26.4146  -2.6329  -2.4901  -1.9777  -1.8475
    -1.7040  -1.7031  -1.5837  -1.5827  -1.4536  -1.2804  -1.2795  -1.2153
    -1.1850  -1.1842  -1.1465  -1.1227  -1.0644  -0.9859  -0.9849  -0.9362
    -0.8245  -0.8236  -0.8047  -0.8040  -0.7791  -0.7779  -0.7667  -0.7659
    -0.7179  -0.6654  -0.6641  -0.6251  -0.5348  -0.5333  -0.4946  -0.4931
     5.7059   5.9194   6.0974   6.2328   6.2329   6.3900   6.4070   6.4073
     6.4730   6.4742   6.4744   6.5594   6.5596   6.6540   6.6548   6.8077
     6.8084   6.9137   6.9145   7.0003   7.0007   7.0287   7.1297   7.1961
     7.2344   7.2349   7.2784   7.2789   7.3189   7.3195   7.5202   7.5206
     7.5553   7.6177   7.6387   7.6392   7.6720   7.8040   7.8044   7.9694
     7.9701   7.9936   7.9943   8.0455   8.0674   8.0678   8.1856   8.1863
     8.2300   8.2303   8.2842   8.3971   8.3974   8.5934   8.7008   8.7016
     8.8253   8.8268   8.8577   8.8578   8.9003   8.9432   8.9441   8.9641
     8.9830   8.9842   9.0772   9.1005   9.1517   9.1532   9.1538   9.4621
     9.4791   9.4854   9.5411   9.7845   9.7864   9.8537   9.9519   9.9531
     9.9730   9.9740   9.9771   9.9784   9.9802   9.9808  10.0161  10.0194
    10.0201  10.0322  10.0863  10.0981  10.1156  10.1168  10.1480  10.2746
    10.2762  10.2842  10.2875  10.2879  10.3254  10.4991  10.5655  10.5723
    10.5739  10.6649  10.6955  10.7791  10.9400  10.9475  10.9826  10.9857
    11.0196  11.0203  11.0467  11.0489  11.0686  11.0989  11.0995  11.1357
    11.5655  11.5661  11.6894  11.6904  11.8213  12.1094

          k =-0.2500-0.4330 0.1957 ( 95526 PWs)   bands (ev):

   -62.2842 -62.2842 -62.2830 -62.2829 -62.2829 -62.2827 -62.2804 -62.2802
   -62.2802 -62.2800 -62.2795 -62.2793 -62.2792 -62.2792 -62.2792 -62.2789
   -62.2789 -62.2787 -35.7204 -35.7203 -35.7185 -35.7183 -35.7178 -35.7178
   -35.7177 -35.7175 -35.7175 -35.7174 -35.7174 -35.7173 -35.7173 -35.7173
   -35.7173 -35.7172 -35.7172 -35.7171 -35.7171 -35.7171 -35.7171 -35.7171
   -35.7170 -35.7169 -35.7169 -35.7168 -35.7168 -35.7167 -35.7167 -35.7166
   -35.7166 -35.7166 -35.7165 -35.7165 -35.7164 -35.7164 -35.7163 -35.7163
   -35.7163 -35.7162 -35.7162 -35.7161 -35.7160 -35.7159 -35.7159 -35.7158
   -35.7156 -35.7154 -35.7153 -35.7153 -35.7152 -35.7152 -35.7151 -35.7150
   -35.7150 -35.7150 -35.7149 -35.7148 -35.7147 -35.7147 -35.7146 -35.7146
   -35.7146 -35.7145 -35.7143 -35.7143 -35.7142 -35.7141 -35.7139 -35.7137
   -35.7121 -35.7119 -35.6801 -35.6797 -35.6781 -35.6776 -35.6773 -35.6773
   -35.6772 -35.6772 -35.6771 -35.6771 -35.6770 -35.6769 -35.6769 -35.6769
   -35.6768 -35.6768 -35.6768 -35.6767 -35.6766 -35.6766 -35.6765 -35.6765
   -35.6764 -35.6764 -35.6763 -35.6763 -35.6763 -35.6763 -35.6763 -35.6762
   -35.6762 -35.6762 -35.6761 -35.6761 -35.6761 -35.6761 -35.6761 -35.6760
   -35.6760 -35.6759 -35.6759 -35.6758 -35.6758 -35.6757 -35.6757 -35.6757
   -35.6755 -35.6755 -35.6755 -35.6754 -35.6753 -35.6753 -35.6752 -35.6752
   -35.6752 -35.6752 -35.6752 -35.6751 -35.6751 -35.6751 -35.6750 -35.6749
   -35.6749 -35.6749 -35.6749 -35.6748 -35.6747 -35.6745 -35.6744 -35.6738
   -35.6724 -35.6720 -35.6623 -35.6603 -35.6601 -35.6601 -35.6599 -35.6599
   -35.6598 -35.6596 -35.6594 -35.6593 -35.6593 -35.6592 -35.6591 -35.6591
   -35.6591 -35.6590 -35.6588 -35.6583 -35.6579 -35.6576 -35.6575 -35.6573
   -35.6573 -35.6570 -35.6568 -35.6567 -35.6566 -35.6564 -35.6564 -35.6564
   -35.6564 -35.6563 -35.6563 -35.6561 -35.6560 -35.6540 -26.5695 -26.5693
   -26.5693 -26.5691 -26.5622 -26.5621 -26.5454 -26.5453 -26.5354 -26.5351
   -26.5351 -26.5349 -26.4811 -26.4810 -26.4777 -26.4774 -26.4774 -26.4772
   -26.4757 -26.4757 -26.4595 -26.4594 -26.4594 -26.4593 -26.4569 -26.4566
   -26.4566 -26.4564 -26.4485 -26.4485 -26.4433 -26.4433 -26.4414 -26.4412
   -26.4412 -26.4411 -26.4301 -26.4298 -26.4298 -26.4296 -26.4269 -26.4267
   -26.4267 -26.4265 -26.4216 -26.4214 -26.4213 -26.4213 -26.4213 -26.4210
   -26.4201 -26.4201 -26.4194 -26.4193  -2.4558  -2.3153  -2.1278  -2.1269
    -1.9935  -1.9925  -1.3636  -1.3578  -1.3567  -1.2557  -1.2546  -1.1977
    -1.1969  -1.1381  -1.0227  -0.9985  -0.9976  -0.9969  -0.9961  -0.9495
    -0.9323  -0.9315  -0.8722  -0.8243  -0.8127  -0.8118  -0.6870  -0.6860
    -0.6448  -0.6435  -0.6421  -0.5754  -0.5745  -0.5735  -0.5614  -0.5255
     5.8491   5.8497   5.9323   6.0218   6.0225   6.0692   6.2230   6.3325
     6.3337   6.5113   6.5602   6.6049   6.6082   6.6090   6.7390   6.7395
     6.9150   6.9527   6.9664   6.9677   7.0182   7.0189   7.0663   7.0671
     7.0973   7.2001   7.3615   7.3624   7.4972   7.4979   7.6376   7.6383
     7.6972   7.7048   7.7060   7.7521   7.8652   7.8659   7.8678   7.8684
     7.8839   7.9175   7.9180   8.0441   8.0625   8.0634   8.4559   8.5346
     8.5363   8.5387   8.5396   8.5945   8.6201   8.6463   8.6696   8.7842
     8.7846   8.7854   8.8274   8.8285   8.8575   8.8871   8.8882   8.9082
     8.9133   8.9514   8.9533   9.0939   9.2847   9.3478   9.3502   9.4052
     9.4061   9.4786   9.4807   9.4932   9.4940   9.5981   9.6147   9.6328
     9.8142   9.8382   9.8401   9.8695   9.8704   9.8719   9.8732   9.8971
     9.9637   9.9746   9.9751  10.0293  10.0489  10.0965  10.0976  10.1725
    10.1727  10.1978  10.3240  10.3244  10.4057  10.4060  10.5155  10.5159
    10.5658  10.9153  10.9158  11.0288  11.1381  11.1386  11.1551  11.1558
    11.1608  11.1615  11.2879  11.2880  11.2915  11.2924  11.3028  11.3041
    11.3211  11.3816  11.3921  11.5467  11.6439  11.7840

          k =-0.2500 0.4330-0.1957 ( 95526 PWs)   bands (ev):

   -62.2842 -62.2842 -62.2830 -62.2829 -62.2829 -62.2827 -62.2804 -62.2802
   -62.2802 -62.2800 -62.2796 -62.2792 -62.2792 -62.2792 -62.2791 -62.2790
   -62.2789 -62.2787 -35.7204 -35.7203 -35.7185 -35.7184 -35.7179 -35.7178
   -35.7176 -35.7175 -35.7174 -35.7174 -35.7173 -35.7173 -35.7173 -35.7173
   -35.7172 -35.7172 -35.7171 -35.7171 -35.7171 -35.7171 -35.7171 -35.7170
   -35.7170 -35.7169 -35.7169 -35.7168 -35.7168 -35.7168 -35.7167 -35.7167
   -35.7166 -35.7166 -35.7166 -35.7165 -35.7165 -35.7163 -35.7163 -35.7163
   -35.7163 -35.7162 -35.7161 -35.7161 -35.7159 -35.7159 -35.7159 -35.7158
   -35.7157 -35.7156 -35.7153 -35.7153 -35.7153 -35.7152 -35.7151 -35.7151
   -35.7150 -35.7150 -35.7149 -35.7148 -35.7147 -35.7147 -35.7146 -35.7146
   -35.7146 -35.7145 -35.7143 -35.7143 -35.7143 -35.7140 -35.7139 -35.7137
   -35.7121 -35.7119 -35.6801 -35.6797 -35.6781 -35.6776 -35.6774 -35.6773
   -35.6771 -35.6771 -35.6771 -35.6771 -35.6770 -35.6769 -35.6769 -35.6768
   -35.6768 -35.6768 -35.6767 -35.6767 -35.6767 -35.6766 -35.6765 -35.6765
   -35.6764 -35.6764 -35.6764 -35.6763 -35.6763 -35.6763 -35.6762 -35.6762
   -35.6762 -35.6762 -35.6761 -35.6761 -35.6761 -35.6761 -35.6761 -35.6760
   -35.6760 -35.6759 -35.6759 -35.6758 -35.6758 -35.6758 -35.6757 -35.6757
   -35.6755 -35.6755 -35.6755 -35.6754 -35.6754 -35.6753 -35.6753 -35.6752
   -35.6752 -35.6752 -35.6752 -35.6751 -35.6751 -35.6751 -35.6750 -35.6749
   -35.6749 -35.6749 -35.6748 -35.6747 -35.6747 -35.6746 -35.6744 -35.6738
   -35.6724 -35.6720 -35.6623 -35.6604 -35.6601 -35.6600 -35.6599 -35.6599
   -35.6598 -35.6596 -35.6595 -35.6593 -35.6593 -35.6592 -35.6591 -35.6591
   -35.6591 -35.6590 -35.6588 -35.6583 -35.6579 -35.6576 -35.6575 -35.6573
   -35.6573 -35.6570 -35.6567 -35.6567 -35.6566 -35.6565 -35.6564 -35.6564
   -35.6564 -35.6563 -35.6563 -35.6561 -35.6560 -35.6540 -26.5696 -26.5693
   -26.5693 -26.5692 -26.5621 -26.5620 -26.5454 -26.5454 -26.5353 -26.5351
   -26.5351 -26.5348 -26.4810 -26.4810 -26.4777 -26.4774 -26.4774 -26.4772
   -26.4757 -26.4757 -26.4597 -26.4594 -26.4594 -26.4593 -26.4568 -26.4566
   -26.4566 -26.4563 -26.4485 -26.4485 -26.4433 -26.4433 -26.4414 -26.4412
   -26.4412 -26.4411 -26.4301 -26.4298 -26.4298 -26.4296 -26.4269 -26.4267
   -26.4267 -26.4265 -26.4216 -26.4213 -26.4213 -26.4213 -26.4213 -26.4211
   -26.4201 -26.4200 -26.4194 -26.4194  -2.4558  -2.3152  -2.1278  -2.1269
    -1.9935  -1.9926  -1.3636  -1.3579  -1.3569  -1.2559  -1.2547  -1.1977
    -1.1969  -1.1382  -1.0225  -0.9984  -0.9975  -0.9968  -0.9959  -0.9493
    -0.9322  -0.9313  -0.8725  -0.8246  -0.8125  -0.8116  -0.6867  -0.6858
    -0.6452  -0.6434  -0.6425  -0.5752  -0.5746  -0.5737  -0.5616  -0.5252
     5.8489   5.8494   5.9324   6.0216   6.0222   6.0697   6.2235   6.3325
     6.3337   6.5111   6.5600   6.6049   6.6083   6.6091   6.7391   6.7397
     6.9144   6.9523   6.9664   6.9677   7.0186   7.0192   7.0667   7.0674
     7.0980   7.2008   7.3613   7.3621   7.4970   7.4979   7.6379   7.6386
     7.6966   7.7045   7.7056   7.7522   7.8651   7.8657   7.8673   7.8681
     7.8837   7.9173   7.9180   8.0435   8.0629   8.0636   8.4553   8.5344
     8.5364   8.5384   8.5396   8.5949   8.6205   8.6456   8.6696   8.7838
     8.7847   8.7854   8.8279   8.8288   8.8573   8.8870   8.8880   8.9073
     8.9140   8.9509   8.9528   9.0937   9.2846   9.3482   9.3503   9.4053
     9.4062   9.4791   9.4812   9.4933   9.4942   9.5965   9.6142   9.6324
     9.8149   9.8382   9.8401   9.8692   9.8705   9.8715   9.8732   9.8990
     9.9656   9.9745   9.9748  10.0294  10.0498  10.0966  10.0974  10.1726
    10.1731  10.1980  10.3240  10.3242  10.4059  10.4063  10.5156  10.5160
    10.5650  10.9150  10.9156  11.0288  11.1382  11.1391  11.1546  11.1553
    11.1615  11.1618  11.2873  11.2889  11.2912  11.2918  11.3034  11.3037
    11.3208  11.3814  11.3924  11.5471  11.6437  11.7834

          k = 0.2500-0.4330-0.1957 ( 95526 PWs)   bands (ev):

   -62.2842 -62.2842 -62.2830 -62.2829 -62.2829 -62.2827 -62.2804 -62.2802
   -62.2802 -62.2800 -62.2796 -62.2792 -62.2792 -62.2792 -62.2791 -62.2790
   -62.2789 -62.2787 -35.7204 -35.7203 -35.7185 -35.7184 -35.7179 -35.7178
   -35.7176 -35.7175 -35.7174 -35.7174 -35.7173 -35.7173 -35.7173 -35.7173
   -35.7172 -35.7172 -35.7171 -35.7171 -35.7171 -35.7171 -35.7171 -35.7170
   -35.7170 -35.7169 -35.7169 -35.7168 -35.7168 -35.7168 -35.7167 -35.7167
   -35.7166 -35.7166 -35.7166 -35.7165 -35.7165 -35.7163 -35.7163 -35.7163
   -35.7163 -35.7162 -35.7161 -35.7161 -35.7159 -35.7159 -35.7159 -35.7158
   -35.7157 -35.7156 -35.7153 -35.7153 -35.7153 -35.7152 -35.7151 -35.7151
   -35.7150 -35.7150 -35.7149 -35.7148 -35.7147 -35.7147 -35.7146 -35.7146
   -35.7146 -35.7145 -35.7143 -35.7143 -35.7143 -35.7140 -35.7139 -35.7137
   -35.7121 -35.7119 -35.6801 -35.6797 -35.6781 -35.6776 -35.6774 -35.6773
   -35.6771 -35.6771 -35.6771 -35.6771 -35.6770 -35.6769 -35.6769 -35.6768
   -35.6768 -35.6768 -35.6767 -35.6767 -35.6767 -35.6766 -35.6766 -35.6765
   -35.6764 -35.6764 -35.6764 -35.6763 -35.6763 -35.6763 -35.6762 -35.6762
   -35.6762 -35.6762 -35.6761 -35.6761 -35.6761 -35.6761 -35.6761 -35.6760
   -35.6760 -35.6759 -35.6759 -35.6758 -35.6758 -35.6758 -35.6757 -35.6756
   -35.6755 -35.6755 -35.6755 -35.6754 -35.6754 -35.6753 -35.6752 -35.6752
   -35.6752 -35.6752 -35.6752 -35.6751 -35.6751 -35.6751 -35.6750 -35.6749
   -35.6749 -35.6749 -35.6748 -35.6747 -35.6747 -35.6746 -35.6744 -35.6738
   -35.6724 -35.6720 -35.6623 -35.6604 -35.6601 -35.6600 -35.6599 -35.6599
   -35.6598 -35.6596 -35.6595 -35.6593 -35.6593 -35.6592 -35.6591 -35.6591
   -35.6591 -35.6590 -35.6588 -35.6583 -35.6579 -35.6576 -35.6575 -35.6573
   -35.6573 -35.6570 -35.6567 -35.6567 -35.6566 -35.6565 -35.6564 -35.6564
   -35.6564 -35.6563 -35.6563 -35.6561 -35.6560 -35.6540 -26.5696 -26.5693
   -26.5693 -26.5692 -26.5621 -26.5620 -26.5454 -26.5454 -26.5353 -26.5351
   -26.5351 -26.5348 -26.4810 -26.4810 -26.4777 -26.4774 -26.4774 -26.4772
   -26.4757 -26.4757 -26.4597 -26.4594 -26.4594 -26.4593 -26.4568 -26.4566
   -26.4566 -26.4563 -26.4485 -26.4485 -26.4433 -26.4433 -26.4414 -26.4412
   -26.4412 -26.4411 -26.4301 -26.4298 -26.4298 -26.4296 -26.4269 -26.4267
   -26.4267 -26.4265 -26.4216 -26.4213 -26.4213 -26.4213 -26.4213 -26.4211
   -26.4201 -26.4200 -26.4194 -26.4194  -2.4558  -2.3152  -2.1278  -2.1269
    -1.9935  -1.9926  -1.3636  -1.3579  -1.3569  -1.2559  -1.2547  -1.1977
    -1.1969  -1.1382  -1.0226  -0.9984  -0.9975  -0.9967  -0.9959  -0.9493
    -0.9322  -0.9313  -0.8725  -0.8246  -0.8125  -0.8116  -0.6867  -0.6858
    -0.6452  -0.6434  -0.6425  -0.5755  -0.5745  -0.5736  -0.5616  -0.5252
     5.8489   5.8494   5.9324   6.0215   6.0222   6.0697   6.2235   6.3325
     6.3337   6.5111   6.5600   6.6049   6.6083   6.6091   6.7391   6.7397
     6.9144   6.9523   6.9664   6.9677   7.0186   7.0193   7.0667   7.0674
     7.0980   7.2008   7.3612   7.3622   7.4971   7.4978   7.6379   7.6386
     7.6967   7.7045   7.7056   7.7522   7.8652   7.8657   7.8673   7.8681
     7.8837   7.9174   7.9180   8.0435   8.0628   8.0637   8.4553   8.5344
     8.5364   8.5386   8.5395   8.5949   8.6205   8.6456   8.6696   8.7840
     8.7847   8.7853   8.8278   8.8289   8.8573   8.8869   8.8881   8.9073
     8.9140   8.9510   8.9528   9.0937   9.2846   9.3481   9.3504   9.4052
     9.4062   9.4792   9.4811   9.4933   9.4942   9.5965   9.6142   9.6324
     9.8149   9.8382   9.8401   9.8693   9.8703   9.8716   9.8732   9.8989
     9.9655   9.9744   9.9749  10.0294  10.0499  10.0964  10.0975  10.1727
    10.1729  10.1980  10.3239  10.3242  10.4059  10.4063  10.5156  10.5160
    10.5650  10.9151  10.9156  11.0288  11.1384  11.1390  11.1546  11.1553
    11.1612  11.1620  11.2876  11.2885  11.2913  11.2919  11.3029  11.3042
    11.3208  11.3814  11.3925  11.5471  11.6436  11.7834

          k = 0.5000-0.0000 0.1957 ( 95526 PWs)   bands (ev):

   -62.2842 -62.2842 -62.2829 -62.2829 -62.2829 -62.2828 -62.2803 -62.2802
   -62.2802 -62.2802 -62.2793 -62.2792 -62.2792 -62.2792 -62.2792 -62.2791
   -62.2789 -62.2787 -35.7204 -35.7203 -35.7185 -35.7183 -35.7179 -35.7178
   -35.7177 -35.7175 -35.7175 -35.7174 -35.7174 -35.7173 -35.7173 -35.7173
   -35.7172 -35.7172 -35.7171 -35.7171 -35.7171 -35.7171 -35.7171 -35.7171
   -35.7170 -35.7170 -35.7169 -35.7168 -35.7168 -35.7167 -35.7167 -35.7167
   -35.7166 -35.7166 -35.7165 -35.7165 -35.7164 -35.7163 -35.7163 -35.7163
   -35.7163 -35.7162 -35.7161 -35.7161 -35.7160 -35.7159 -35.7159 -35.7158
   -35.7157 -35.7155 -35.7153 -35.7153 -35.7153 -35.7153 -35.7151 -35.7150
   -35.7150 -35.7150 -35.7149 -35.7148 -35.7148 -35.7147 -35.7146 -35.7146
   -35.7146 -35.7145 -35.7143 -35.7143 -35.7142 -35.7140 -35.7139 -35.7137
   -35.7121 -35.7119 -35.6801 -35.6797 -35.6781 -35.6776 -35.6773 -35.6773
   -35.6771 -35.6771 -35.6771 -35.6771 -35.6770 -35.6769 -35.6769 -35.6768
   -35.6768 -35.6768 -35.6768 -35.6767 -35.6766 -35.6766 -35.6766 -35.6765
   -35.6764 -35.6764 -35.6764 -35.6763 -35.6763 -35.6763 -35.6762 -35.6762
   -35.6762 -35.6762 -35.6761 -35.6761 -35.6761 -35.6761 -35.6761 -35.6760
   -35.6760 -35.6759 -35.6759 -35.6758 -35.6758 -35.6758 -35.6757 -35.6756
   -35.6756 -35.6755 -35.6755 -35.6754 -35.6753 -35.6753 -35.6752 -35.6752
   -35.6752 -35.6752 -35.6752 -35.6751 -35.6751 -35.6750 -35.6750 -35.6749
   -35.6749 -35.6749 -35.6748 -35.6748 -35.6747 -35.6745 -35.6744 -35.6738
   -35.6724 -35.6720 -35.6623 -35.6603 -35.6601 -35.6601 -35.6599 -35.6599
   -35.6598 -35.6596 -35.6594 -35.6593 -35.6593 -35.6592 -35.6591 -35.6591
   -35.6591 -35.6590 -35.6588 -35.6583 -35.6579 -35.6576 -35.6575 -35.6573
   -35.6573 -35.6570 -35.6568 -35.6567 -35.6567 -35.6565 -35.6564 -35.6564
   -35.6564 -35.6563 -35.6563 -35.6561 -35.6560 -35.6540 -26.5694 -26.5693
   -26.5693 -26.5693 -26.5621 -26.5621 -26.5454 -26.5454 -26.5351 -26.5351
   -26.5351 -26.5350 -26.4810 -26.4810 -26.4775 -26.4774 -26.4774 -26.4774
   -26.4757 -26.4757 -26.4595 -26.4594 -26.4594 -26.4594 -26.4567 -26.4566
   -26.4566 -26.4565 -26.4485 -26.4485 -26.4433 -26.4433 -26.4412 -26.4412
   -26.4412 -26.4412 -26.4299 -26.4298 -26.4298 -26.4298 -26.4267 -26.4267
   -26.4267 -26.4267 -26.4214 -26.4213 -26.4213 -26.4213 -26.4213 -26.4213
   -26.4201 -26.4201 -26.4194 -26.4193  -2.4558  -2.3152  -2.1274  -2.1273
    -1.9931  -1.9930  -1.3636  -1.3574  -1.3572  -1.2553  -1.2552  -1.1974
    -1.1972  -1.1382  -1.0226  -0.9980  -0.9979  -0.9966  -0.9963  -0.9494
    -0.9320  -0.9317  -0.8724  -0.8244  -0.8123  -0.8121  -0.6865  -0.6863
    -0.6447  -0.6433  -0.6429  -0.5753  -0.5744  -0.5738  -0.5616  -0.5253
     5.8490   5.8495   5.9323   6.0217   6.0222   6.0694   6.2232   6.3330
     6.3332   6.5112   6.5601   6.6049   6.6086   6.6088   6.7392   6.7394
     6.9147   6.9525   6.9670   6.9671   7.0186   7.0189   7.0667   7.0671
     7.0977   7.2005   7.3617   7.3619   7.4971   7.4979   7.6377   7.6385
     7.6969   7.7049   7.7056   7.7522   7.8653   7.8656   7.8676   7.8682
     7.8838   7.9174   7.9180   8.0438   8.0628   8.0634   8.4556   8.5347
     8.5360   8.5385   8.5398   8.5947   8.6203   8.6460   8.6696   8.7839
     8.7846   8.7856   8.8278   8.8285   8.8574   8.8873   8.8879   8.9077
     8.9137   8.9517   8.9525   9.0938   9.2846   9.3486   9.3497   9.4056
     9.4057   9.4792   9.4806   9.4934   9.4940   9.5973   9.6144   9.6326
     9.8145   9.8389   9.8395   9.8695   9.8705   9.8722   9.8725   9.8981
     9.9647   9.9746   9.9748  10.0294  10.0493  10.0968  10.0973  10.1724
    10.1730  10.1979  10.3240  10.3243  10.4057  10.4063  10.5157  10.5158
    10.5654  10.9152  10.9157  11.0288  11.1380  11.1390  11.1552  11.1554
    11.1613  11.1614  11.2873  11.2890  11.2914  11.2920  11.3033  11.3036
    11.3209  11.3814  11.3923  11.5469  11.6438  11.7837

          k =-0.5000 0.0000 0.1957 ( 95526 PWs)   bands (ev):

   -62.2842 -62.2842 -62.2829 -62.2829 -62.2829 -62.2828 -62.2803 -62.2802
   -62.2802 -62.2802 -62.2793 -62.2792 -62.2792 -62.2792 -62.2792 -62.2791
   -62.2789 -62.2787 -35.7204 -35.7203 -35.7185 -35.7183 -35.7179 -35.7178
   -35.7177 -35.7175 -35.7175 -35.7174 -35.7174 -35.7173 -35.7173 -35.7173
   -35.7172 -35.7172 -35.7171 -35.7171 -35.7171 -35.7171 -35.7171 -35.7171
   -35.7170 -35.7170 -35.7169 -35.7168 -35.7168 -35.7167 -35.7167 -35.7167
   -35.7166 -35.7166 -35.7165 -35.7165 -35.7164 -35.7163 -35.7163 -35.7163
   -35.7163 -35.7162 -35.7161 -35.7161 -35.7160 -35.7159 -35.7159 -35.7158
   -35.7157 -35.7155 -35.7153 -35.7153 -35.7153 -35.7153 -35.7151 -35.7150
   -35.7150 -35.7150 -35.7149 -35.7148 -35.7148 -35.7147 -35.7146 -35.7146
   -35.7146 -35.7145 -35.7143 -35.7143 -35.7142 -35.7140 -35.7139 -35.7137
   -35.7121 -35.7119 -35.6801 -35.6797 -35.6781 -35.6776 -35.6773 -35.6773
   -35.6772 -35.6771 -35.6771 -35.6771 -35.6770 -35.6769 -35.6769 -35.6768
   -35.6768 -35.6768 -35.6768 -35.6767 -35.6767 -35.6766 -35.6766 -35.6765
   -35.6764 -35.6764 -35.6764 -35.6763 -35.6763 -35.6763 -35.6762 -35.6762
   -35.6762 -35.6762 -35.6761 -35.6761 -35.6761 -35.6761 -35.6761 -35.6760
   -35.6760 -35.6759 -35.6759 -35.6758 -35.6758 -35.6758 -35.6757 -35.6756
   -35.6756 -35.6755 -35.6755 -35.6754 -35.6754 -35.6753 -35.6752 -35.6752
   -35.6752 -35.6752 -35.6752 -35.6751 -35.6751 -35.6750 -35.6750 -35.6749
   -35.6749 -35.6749 -35.6748 -35.6748 -35.6747 -35.6745 -35.6744 -35.6738
   -35.6724 -35.6720 -35.6623 -35.6603 -35.6601 -35.6601 -35.6599 -35.6599
   -35.6598 -35.6596 -35.6594 -35.6593 -35.6593 -35.6592 -35.6591 -35.6591
   -35.6591 -35.6590 -35.6588 -35.6583 -35.6579 -35.6576 -35.6575 -35.6573
   -35.6573 -35.6570 -35.6568 -35.6567 -35.6567 -35.6565 -35.6564 -35.6564
   -35.6564 -35.6563 -35.6563 -35.6561 -35.6560 -35.6540 -26.5694 -26.5693
   -26.5693 -26.5693 -26.5621 -26.5621 -26.5454 -26.5454 -26.5351 -26.5351
   -26.5351 -26.5350 -26.4810 -26.4810 -26.4775 -26.4774 -26.4774 -26.4774
   -26.4757 -26.4757 -26.4595 -26.4594 -26.4594 -26.4594 -26.4567 -26.4566
   -26.4566 -26.4565 -26.4485 -26.4485 -26.4433 -26.4433 -26.4412 -26.4412
   -26.4412 -26.4412 -26.4299 -26.4298 -26.4298 -26.4298 -26.4267 -26.4267
   -26.4267 -26.4267 -26.4214 -26.4213 -26.4213 -26.4213 -26.4213 -26.4213
   -26.4201 -26.4201 -26.4194 -26.4193  -2.4558  -2.3152  -2.1274  -2.1273
    -1.9931  -1.9930  -1.3636  -1.3574  -1.3572  -1.2553  -1.2552  -1.1974
    -1.1972  -1.1382  -1.0226  -0.9981  -0.9980  -0.9966  -0.9963  -0.9494
    -0.9320  -0.9317  -0.8724  -0.8244  -0.8123  -0.8121  -0.6865  -0.6863
    -0.6446  -0.6432  -0.6429  -0.5755  -0.5744  -0.5735  -0.5616  -0.5253
     5.8491   5.8495   5.9323   6.0217   6.0223   6.0694   6.2232   6.3330
     6.3332   6.5112   6.5601   6.6049   6.6086   6.6087   6.7392   6.7394
     6.9147   6.9525   6.9669   6.9672   7.0186   7.0189   7.0666   7.0671
     7.0977   7.2004   7.3615   7.3621   7.4975   7.4976   7.6378   7.6384
     7.6970   7.7048   7.7056   7.7522   7.8653   7.8657   7.8678   7.8680
     7.8838   7.9177   7.9177   8.0438   8.0627   8.0635   8.4556   8.5349
     8.5359   8.5389   8.5394   8.5947   8.6203   8.6460   8.6696   8.7842
     8.7846   8.7853   8.8276   8.8287   8.8574   8.8870   8.8881   8.9077
     8.9136   8.9517   8.9525   9.0938   9.2846   9.3483   9.3500   9.4055
     9.4058   9.4796   9.4802   9.4936   9.4937   9.5973   9.6144   9.6326
     9.8145   9.8391   9.8393   9.8696   9.8703   9.8722   9.8726   9.8980
     9.9646   9.9745   9.9751  10.0294  10.0494  10.0965  10.0975  10.1727
    10.1727  10.1979  10.3239  10.3244  10.4057  10.4062  10.5156  10.5159
    10.5654  10.9153  10.9156  11.0288  11.1384  11.1386  11.1551  11.1555
    11.1609  11.1618  11.2880  11.2883  11.2915  11.2920  11.3025  11.3044
    11.3208  11.3815  11.3923  11.5469  11.6438  11.7837

          k =-0.2500 0.1443 0.1957 ( 95551 PWs)   bands (ev):

   -62.2850 -62.2850 -62.2823 -62.2823 -62.2814 -62.2813 -62.2813 -62.2813
   -62.2801 -62.2800 -62.2800 -62.2800 -62.2796 -62.2796 -62.2787 -62.2787
   -62.2786 -62.2785 -35.7204 -35.7203 -35.7185 -35.7184 -35.7180 -35.7178
   -35.7177 -35.7176 -35.7175 -35.7174 -35.7174 -35.7174 -35.7173 -35.7173
   -35.7173 -35.7173 -35.7173 -35.7172 -35.7171 -35.7171 -35.7171 -35.7170
   -35.7170 -35.7170 -35.7170 -35.7169 -35.7168 -35.7168 -35.7168 -35.7168
   -35.7167 -35.7166 -35.7166 -35.7165 -35.7164 -35.7163 -35.7160 -35.7160
   -35.7159 -35.7159 -35.7159 -35.7158 -35.7157 -35.7156 -35.7156 -35.7156
   -35.7156 -35.7154 -35.7153 -35.7153 -35.7152 -35.7151 -35.7151 -35.7151
   -35.7150 -35.7150 -35.7150 -35.7149 -35.7149 -35.7149 -35.7149 -35.7147
   -35.7147 -35.7147 -35.7146 -35.7144 -35.7144 -35.7140 -35.7139 -35.7137
   -35.7121 -35.7120 -35.6801 -35.6797 -35.6781 -35.6776 -35.6774 -35.6773
   -35.6773 -35.6772 -35.6770 -35.6770 -35.6769 -35.6769 -35.6768 -35.6768
   -35.6767 -35.6767 -35.6767 -35.6766 -35.6766 -35.6765 -35.6765 -35.6764
   -35.6764 -35.6764 -35.6764 -35.6764 -35.6763 -35.6763 -35.6763 -35.6763
   -35.6762 -35.6762 -35.6762 -35.6761 -35.6761 -35.6761 -35.6761 -35.6760
   -35.6760 -35.6759 -35.6759 -35.6758 -35.6758 -35.6758 -35.6758 -35.6757
   -35.6757 -35.6756 -35.6756 -35.6755 -35.6755 -35.6754 -35.6753 -35.6752
   -35.6751 -35.6751 -35.6751 -35.6751 -35.6751 -35.6750 -35.6750 -35.6749
   -35.6749 -35.6748 -35.6748 -35.6747 -35.6747 -35.6745 -35.6744 -35.6738
   -35.6724 -35.6720 -35.6623 -35.6604 -35.6603 -35.6600 -35.6598 -35.6597
   -35.6596 -35.6595 -35.6595 -35.6595 -35.6593 -35.6593 -35.6592 -35.6592
   -35.6590 -35.6590 -35.6588 -35.6583 -35.6579 -35.6578 -35.6575 -35.6572
   -35.6569 -35.6569 -35.6569 -35.6567 -35.6566 -35.6566 -35.6565 -35.6565
   -35.6563 -35.6563 -35.6563 -35.6561 -35.6560 -35.6540 -26.5646 -26.5645
   -26.5503 -26.5500 -26.5500 -26.5498 -26.5480 -26.5476 -26.5476 -26.5472
   -26.5167 -26.5165 -26.5165 -26.5162 -26.4973 -26.4971 -26.4971 -26.4969
   -26.4944 -26.4943 -26.4527 -26.4527 -26.4512 -26.4510 -26.4510 -26.4508
   -26.4480 -26.4480 -26.4414 -26.4412 -26.4412 -26.4410 -26.4382 -26.4382
   -26.4329 -26.4328 -26.4328 -26.4328 -26.4314 -26.4313 -26.4256 -26.4255
   -26.4255 -26.4255 -26.4236 -26.4236 -26.4232 -26.4232 -26.4183 -26.4183
   -26.4182 -26.4182 -26.4147 -26.4146  -2.6329  -2.4901  -1.9777  -1.8475
    -1.7040  -1.7031  -1.5837  -1.5827  -1.4536  -1.2804  -1.2795  -1.2153
    -1.1850  -1.1842  -1.1465  -1.1227  -1.0644  -0.9859  -0.9849  -0.9362
    -0.8246  -0.8236  -0.8047  -0.8040  -0.7791  -0.7780  -0.7667  -0.7659
    -0.7178  -0.6654  -0.6641  -0.6252  -0.5348  -0.5333  -0.4946  -0.4931
     5.7059   5.9194   6.0973   6.2326   6.2328   6.3900   6.4072   6.4075
     6.4728   6.4743   6.4745   6.5593   6.5595   6.6542   6.6552   6.8077
     6.8085   6.9138   6.9145   6.9996   7.0003   7.0292   7.1298   7.1960
     7.2339   7.2346   7.2785   7.2793   7.3187   7.3192   7.5210   7.5216
     7.5555   7.6177   7.6387   7.6392   7.6712   7.8037   7.8043   7.9699
     7.9704   7.9934   7.9942   8.0456   8.0668   8.0680   8.1858   8.1862
     8.2300   8.2303   8.2845   8.3965   8.3970   8.5933   8.7015   8.7019
     8.8260   8.8269   8.8575   8.8577   8.9003   8.9428   8.9441   8.9641
     8.9827   8.9837   9.0773   9.1005   9.1521   9.1531   9.1540   9.4622
     9.4791   9.4854   9.5411   9.7845   9.7864   9.8535   9.9519   9.9528
     9.9726   9.9739   9.9772   9.9783   9.9804   9.9809  10.0163  10.0197
    10.0203  10.0322  10.0863  10.0982  10.1157  10.1164  10.1482  10.2752
    10.2757  10.2841  10.2868  10.2877  10.3254  10.4991  10.5655  10.5732
    10.5739  10.6645  10.6955  10.7790  10.9400  10.9475  10.9829  10.9848
    11.0198  11.0206  11.0465  11.0493  11.0694  11.0986  11.0993  11.1352
    11.5652  11.5661  11.6896  11.6904  11.8213  12.1094

          k =-0.2500-0.1443-0.1957 ( 95551 PWs)   bands (ev):

   -62.2850 -62.2850 -62.2823 -62.2823 -62.2814 -62.2813 -62.2813 -62.2813
   -62.2801 -62.2800 -62.2800 -62.2799 -62.2796 -62.2796 -62.2787 -62.2787
   -62.2786 -62.2785 -35.7204 -35.7203 -35.7185 -35.7183 -35.7179 -35.7178
   -35.7178 -35.7176 -35.7175 -35.7175 -35.7174 -35.7174 -35.7173 -35.7173
   -35.7173 -35.7173 -35.7173 -35.7172 -35.7172 -35.7171 -35.7171 -35.7170
   -35.7170 -35.7170 -35.7169 -35.7169 -35.7169 -35.7168 -35.7168 -35.7168
   -35.7167 -35.7166 -35.7166 -35.7165 -35.7164 -35.7163 -35.7161 -35.7160
   -35.7160 -35.7159 -35.7159 -35.7158 -35.7157 -35.7156 -35.7156 -35.7156
   -35.7155 -35.7154 -35.7153 -35.7153 -35.7152 -35.7152 -35.7151 -35.7151
   -35.7150 -35.7150 -35.7149 -35.7149 -35.7149 -35.7149 -35.7147 -35.7147
   -35.7147 -35.7147 -35.7145 -35.7144 -35.7144 -35.7142 -35.7140 -35.7138
   -35.7121 -35.7119 -35.6801 -35.6797 -35.6781 -35.6777 -35.6774 -35.6773
   -35.6772 -35.6772 -35.6771 -35.6771 -35.6769 -35.6768 -35.6768 -35.6767
   -35.6767 -35.6767 -35.6767 -35.6766 -35.6766 -35.6765 -35.6765 -35.6764
   -35.6764 -35.6764 -35.6764 -35.6764 -35.6763 -35.6763 -35.6763 -35.6763
   -35.6762 -35.6762 -35.6762 -35.6761 -35.6761 -35.6761 -35.6761 -35.6760
   -35.6760 -35.6760 -35.6759 -35.6758 -35.6758 -35.6758 -35.6758 -35.6757
   -35.6757 -35.6757 -35.6756 -35.6755 -35.6754 -35.6753 -35.6753 -35.6752
   -35.6751 -35.6751 -35.6751 -35.6751 -35.6751 -35.6750 -35.6750 -35.6749
   -35.6749 -35.6748 -35.6748 -35.6748 -35.6747 -35.6745 -35.6744 -35.6738
   -35.6724 -35.6720 -35.6623 -35.6604 -35.6603 -35.6600 -35.6599 -35.6597
   -35.6596 -35.6595 -35.6595 -35.6594 -35.6593 -35.6593 -35.6592 -35.6592
   -35.6590 -35.6590 -35.6588 -35.6583 -35.6580 -35.6578 -35.6575 -35.6572
   -35.6569 -35.6569 -35.6569 -35.6568 -35.6566 -35.6566 -35.6565 -35.6564
   -35.6563 -35.6563 -35.6563 -35.6562 -35.6560 -35.6540 -26.5645 -26.5644
   -26.5504 -26.5501 -26.5500 -26.5498 -26.5480 -26.5476 -26.5476 -26.5472
   -26.5168 -26.5165 -26.5165 -26.5163 -26.4972 -26.4971 -26.4971 -26.4969
   -26.4943 -26.4943 -26.4527 -26.4527 -26.4512 -26.4510 -26.4510 -26.4508
   -26.4480 -26.4480 -26.4413 -26.4412 -26.4412 -26.4410 -26.4382 -26.4382
   -26.4329 -26.4328 -26.4328 -26.4328 -26.4314 -26.4314 -26.4256 -26.4255
   -26.4255 -26.4255 -26.4236 -26.4236 -26.4232 -26.4231 -26.4183 -26.4183
   -26.4182 -26.4182 -26.4147 -26.4147  -2.6329  -2.4901  -1.9778  -1.8477
    -1.7039  -1.7029  -1.5835  -1.5825  -1.4536  -1.2803  -1.2794  -1.2153
    -1.1849  -1.1840  -1.1469  -1.1225  -1.0647  -0.9861  -0.9851  -0.9360
    -0.8248  -0.8237  -0.8047  -0.8040  -0.7792  -0.7780  -0.7666  -0.7659
    -0.7174  -0.6655  -0.6642  -0.6247  -0.5348  -0.5333  -0.4946  -0.4931
     5.7059   5.9198   6.0978   6.2325   6.2326   6.3900   6.4070   6.4073
     6.4726   6.4742   6.4744   6.5592   6.5594   6.6544   6.6552   6.8077
     6.8083   6.9137   6.9145   6.9998   7.0002   7.0290   7.1295   7.1956
     7.2341   7.2345   7.2787   7.2792   7.3185   7.3191   7.5211   7.5216
     7.5555   7.6170   7.6387   7.6393   7.6712   7.8040   7.8044   7.9702
     7.9709   7.9937   7.9945   8.0449   8.0673   8.0677   8.1860   8.1867
     8.2299   8.2302   8.2852   8.3965   8.3969   8.5939   8.7014   8.7022
     8.8267   8.8281   8.8576   8.8577   8.8992   8.9438   8.9447   8.9631
     8.9827   8.9838   9.0769   9.1001   9.1522   9.1527   9.1544   9.4627
     9.4795   9.4842   9.5396   9.7845   9.7863   9.8542   9.9515   9.9527
     9.9728   9.9737   9.9767   9.9781   9.9799   9.9804  10.0178  10.0194
    10.0212  10.0325  10.0866  10.0992  10.1145  10.1159  10.1480  10.2738
    10.2757  10.2820  10.2875  10.2879  10.3231  10.5008  10.5652  10.5731
    10.5746  10.6646  10.6952  10.7801  10.9403  10.9486  10.9813  10.9844
    11.0202  11.0208  11.0459  11.0479  11.0703  11.0987  11.0994  11.1362
    11.5653  11.5660  11.6894  11.6904  11.8214  12.1096

          k = 0.2500 0.1443-0.1957 ( 95551 PWs)   bands (ev):

   -62.2850 -62.2850 -62.2823 -62.2823 -62.2814 -62.2813 -62.2813 -62.2813
   -62.2801 -62.2800 -62.2800 -62.2799 -62.2796 -62.2796 -62.2787 -62.2787
   -62.2786 -62.2785 -35.7204 -35.7203 -35.7185 -35.7183 -35.7179 -35.7178
   -35.7178 -35.7176 -35.7175 -35.7175 -35.7174 -35.7174 -35.7173 -35.7173
   -35.7173 -35.7173 -35.7173 -35.7172 -35.7172 -35.7171 -35.7171 -35.7170
   -35.7170 -35.7170 -35.7169 -35.7169 -35.7169 -35.7168 -35.7168 -35.7168
   -35.7167 -35.7166 -35.7166 -35.7165 -35.7164 -35.7163 -35.7161 -35.7160
   -35.7160 -35.7159 -35.7159 -35.7158 -35.7157 -35.7156 -35.7156 -35.7156
   -35.7155 -35.7154 -35.7153 -35.7153 -35.7152 -35.7152 -35.7151 -35.7151
   -35.7150 -35.7150 -35.7150 -35.7149 -35.7149 -35.7149 -35.7147 -35.7147
   -35.7147 -35.7147 -35.7145 -35.7144 -35.7144 -35.7142 -35.7140 -35.7138
   -35.7121 -35.7120 -35.6801 -35.6797 -35.6781 -35.6777 -35.6774 -35.6773
   -35.6772 -35.6772 -35.6771 -35.6771 -35.6769 -35.6768 -35.6768 -35.6767
   -35.6767 -35.6767 -35.6767 -35.6766 -35.6766 -35.6765 -35.6765 -35.6764
   -35.6764 -35.6764 -35.6764 -35.6764 -35.6763 -35.6763 -35.6763 -35.6763
   -35.6762 -35.6762 -35.6762 -35.6761 -35.6761 -35.6761 -35.6761 -35.6760
   -35.6760 -35.6760 -35.6759 -35.6758 -35.6758 -35.6758 -35.6758 -35.6757
   -35.6757 -35.6757 -35.6756 -35.6755 -35.6755 -35.6753 -35.6753 -35.6752
   -35.6751 -35.6751 -35.6751 -35.6751 -35.6751 -35.6750 -35.6750 -35.6749
   -35.6749 -35.6748 -35.6748 -35.6748 -35.6747 -35.6745 -35.6744 -35.6738
   -35.6724 -35.6720 -35.6623 -35.6604 -35.6603 -35.6600 -35.6599 -35.6597
   -35.6596 -35.6595 -35.6595 -35.6594 -35.6593 -35.6593 -35.6592 -35.6592
   -35.6590 -35.6590 -35.6588 -35.6583 -35.6580 -35.6578 -35.6575 -35.6572
   -35.6569 -35.6569 -35.6569 -35.6568 -35.6566 -35.6566 -35.6565 -35.6564
   -35.6563 -35.6563 -35.6563 -35.6562 -35.6560 -35.6540 -26.5645 -26.5644
   -26.5504 -26.5501 -26.5500 -26.5498 -26.5480 -26.5476 -26.5476 -26.5472
   -26.5168 -26.5165 -26.5165 -26.5163 -26.4972 -26.4971 -26.4971 -26.4969
   -26.4943 -26.4943 -26.4527 -26.4527 -26.4512 -26.4510 -26.4510 -26.4508
   -26.4480 -26.4480 -26.4413 -26.4412 -26.4412 -26.4410 -26.4382 -26.4382
   -26.4329 -26.4328 -26.4328 -26.4328 -26.4314 -26.4314 -26.4256 -26.4255
   -26.4255 -26.4255 -26.4236 -26.4236 -26.4232 -26.4231 -26.4183 -26.4183
   -26.4182 -26.4182 -26.4147 -26.4147  -2.6329  -2.4901  -1.9778  -1.8477
    -1.7039  -1.7029  -1.5835  -1.5825  -1.4536  -1.2802  -1.2794  -1.2153
    -1.1850  -1.1840  -1.1469  -1.1225  -1.0647  -0.9861  -0.9851  -0.9360
    -0.8248  -0.8237  -0.8047  -0.8040  -0.7792  -0.7780  -0.7666  -0.7659
    -0.7175  -0.6655  -0.6642  -0.6247  -0.5348  -0.5333  -0.4946  -0.4931
     5.7059   5.9197   6.0979   6.2326   6.2328   6.3900   6.4068   6.4071
     6.4727   6.4741   6.4743   6.5594   6.5595   6.6541   6.6550   6.8076
     6.8084   6.9138   6.9144   7.0002   7.0009   7.0286   7.1294   7.1956
     7.2344   7.2351   7.2783   7.2791   7.3188   7.3193   7.5201   7.5208
     7.5553   7.6171   7.6387   7.6392   7.6720   7.8041   7.8047   7.9698
     7.9704   7.9938   7.9947   8.0448   8.0671   8.0683   8.1861   8.1865
     8.2299   8.2302   8.2849   8.3969   8.3975   8.5940   8.7011   8.7015
     8.8266   8.8274   8.8577   8.8580   8.8992   8.9439   8.9451   8.9631
     8.9832   8.9842   9.0768   9.1000   9.1521   9.1528   9.1540   9.4627
     9.4795   9.4841   9.5397   9.7844   9.7863   9.8544   9.9517   9.9527
     9.9729   9.9740   9.9767   9.9782   9.9797   9.9802  10.0178  10.0192
    10.0207  10.0324  10.0866  10.0991  10.1150  10.1156  10.1478  10.2745
    10.2750  10.2819  10.2877  10.2886  10.3231  10.5008  10.5653  10.5731
    10.5736  10.6651  10.6952  10.7801  10.9404  10.9486  10.9823  10.9842
    11.0199  11.0206  11.0454  11.0480  11.0695  11.0989  11.0996  11.1367
    11.5653  11.5662  11.6894  11.6902  11.8213  12.1097

          k = 0.0000-0.2887 0.1957 ( 95551 PWs)   bands (ev):

   -62.2850 -62.2850 -62.2824 -62.2823 -62.2814 -62.2813 -62.2813 -62.2813
   -62.2801 -62.2800 -62.2800 -62.2800 -62.2796 -62.2796 -62.2787 -62.2787
   -62.2786 -62.2785 -35.7204 -35.7203 -35.7185 -35.7184 -35.7179 -35.7179
   -35.7177 -35.7176 -35.7175 -35.7174 -35.7174 -35.7174 -35.7173 -35.7173
   -35.7173 -35.7173 -35.7173 -35.7172 -35.7172 -35.7171 -35.7170 -35.7170
   -35.7170 -35.7170 -35.7169 -35.7169 -35.7168 -35.7168 -35.7168 -35.7168
   -35.7167 -35.7166 -35.7166 -35.7166 -35.7164 -35.7163 -35.7161 -35.7160
   -35.7159 -35.7159 -35.7159 -35.7159 -35.7157 -35.7156 -35.7156 -35.7156
   -35.7155 -35.7154 -35.7153 -35.7153 -35.7152 -35.7151 -35.7151 -35.7151
   -35.7150 -35.7150 -35.7149 -35.7149 -35.7149 -35.7149 -35.7148 -35.7147
   -35.7147 -35.7147 -35.7145 -35.7144 -35.7144 -35.7140 -35.7140 -35.7138
   -35.7121 -35.7120 -35.6801 -35.6797 -35.6781 -35.6776 -35.6774 -35.6773
   -35.6773 -35.6772 -35.6771 -35.6771 -35.6769 -35.6769 -35.6768 -35.6767
   -35.6767 -35.6767 -35.6767 -35.6766 -35.6766 -35.6765 -35.6765 -35.6764
   -35.6764 -35.6764 -35.6764 -35.6764 -35.6763 -35.6763 -35.6763 -35.6763
   -35.6762 -35.6762 -35.6762 -35.6761 -35.6761 -35.6761 -35.6761 -35.6760
   -35.6760 -35.6760 -35.6759 -35.6758 -35.6758 -35.6758 -35.6758 -35.6757
   -35.6757 -35.6756 -35.6755 -35.6755 -35.6754 -35.6754 -35.6753 -35.6752
   -35.6752 -35.6751 -35.6751 -35.6751 -35.6750 -35.6750 -35.6750 -35.6749
   -35.6749 -35.6748 -35.6748 -35.6748 -35.6746 -35.6745 -35.6744 -35.6738
   -35.6724 -35.6720 -35.6623 -35.6604 -35.6603 -35.6600 -35.6599 -35.6597
   -35.6596 -35.6595 -35.6595 -35.6595 -35.6593 -35.6593 -35.6592 -35.6592
   -35.6590 -35.6590 -35.6588 -35.6583 -35.6579 -35.6578 -35.6575 -35.6572
   -35.6569 -35.6569 -35.6569 -35.6567 -35.6566 -35.6566 -35.6565 -35.6565
   -35.6563 -35.6563 -35.6563 -35.6561 -35.6560 -35.6540 -26.5645 -26.5645
   -26.5504 -26.5500 -26.5500 -26.5497 -26.5480 -26.5476 -26.5476 -26.5472
   -26.5168 -26.5165 -26.5165 -26.5162 -26.4974 -26.4971 -26.4971 -26.4968
   -26.4943 -26.4943 -26.4527 -26.4527 -26.4512 -26.4510 -26.4510 -26.4508
   -26.4480 -26.4480 -26.4412 -26.4412 -26.4412 -26.4411 -26.4382 -26.4382
   -26.4329 -26.4328 -26.4328 -26.4328 -26.4314 -26.4313 -26.4256 -26.4255
   -26.4255 -26.4255 -26.4236 -26.4236 -26.4232 -26.4231 -26.4183 -26.4183
   -26.4182 -26.4182 -26.4147 -26.4147  -2.6329  -2.4901  -1.9778  -1.8476
    -1.7041  -1.7028  -1.5838  -1.5824  -1.4536  -1.2804  -1.2793  -1.2153
    -1.1851  -1.1840  -1.1467  -1.1226  -1.0646  -0.9859  -0.9851  -0.9361
    -0.8246  -0.8237  -0.8047  -0.8039  -0.7791  -0.7780  -0.7667  -0.7658
    -0.7176  -0.6654  -0.6642  -0.6249  -0.5348  -0.5333  -0.4946  -0.4931
     5.7059   5.9196   6.0976   6.2325   6.2328   6.3900   6.4070   6.4074
     6.4727   6.4741   6.4745   6.5592   6.5595   6.6541   6.6555   6.8076
     6.8085   6.9137   6.9146   6.9995   7.0005   7.0291   7.1297   7.1958
     7.2340   7.2345   7.2784   7.2794   7.3184   7.3193   7.5209   7.5218
     7.5555   7.6173   7.6384   7.6395   7.6712   7.8037   7.8045   7.9698
     7.9709   7.9933   7.9946   8.0452   8.0672   8.0677   8.1858   8.1866
     8.2298   8.2303   8.2849   8.3964   8.3970   8.5936   8.7014   8.7021
     8.8266   8.8272   8.8576   8.8577   8.8998   8.9435   8.9441   8.9636
     8.9826   8.9839   9.0771   9.1003   9.1519   9.1530   9.1544   9.4624
     9.4793   9.4848   9.5404   9.7845   9.7864   9.8539   9.9515   9.9529
     9.9727   9.9738   9.9769   9.9783   9.9799   9.9809  10.0171  10.0195
    10.0207  10.0324  10.0865  10.0987  10.1149  10.1163  10.1481  10.2745
    10.2758  10.2829  10.2871  10.2878  10.3242  10.4999  10.5653  10.5732
    10.5742  10.6646  10.6953  10.7796  10.9402  10.9481  10.9826  10.9841
    11.0197  11.0210  11.0467  11.0481  11.0698  11.0984  11.0997  11.1358
    11.5652  11.5661  11.6894  11.6905  11.8214  12.1095

          k =-0.0000 0.2887 0.1957 ( 95551 PWs)   bands (ev):

   -62.2850 -62.2850 -62.2824 -62.2823 -62.2814 -62.2813 -62.2813 -62.2813
   -62.2801 -62.2800 -62.2800 -62.2800 -62.2796 -62.2796 -62.2787 -62.2787
   -62.2786 -62.2785 -35.7204 -35.7203 -35.7185 -35.7184 -35.7179 -35.7179
   -35.7177 -35.7176 -35.7175 -35.7174 -35.7174 -35.7174 -35.7173 -35.7173
   -35.7173 -35.7173 -35.7173 -35.7172 -35.7172 -35.7171 -35.7170 -35.7170
   -35.7170 -35.7170 -35.7169 -35.7169 -35.7168 -35.7168 -35.7168 -35.7168
   -35.7167 -35.7166 -35.7166 -35.7166 -35.7164 -35.7163 -35.7161 -35.7160
   -35.7159 -35.7159 -35.7159 -35.7159 -35.7157 -35.7156 -35.7156 -35.7156
   -35.7155 -35.7154 -35.7153 -35.7153 -35.7152 -35.7151 -35.7151 -35.7151
   -35.7150 -35.7150 -35.7149 -35.7149 -35.7149 -35.7149 -35.7148 -35.7147
   -35.7147 -35.7147 -35.7145 -35.7144 -35.7144 -35.7140 -35.7140 -35.7138
   -35.7121 -35.7120 -35.6801 -35.6797 -35.6781 -35.6776 -35.6774 -35.6773
   -35.6772 -35.6772 -35.6771 -35.6771 -35.6769 -35.6769 -35.6768 -35.6767
   -35.6767 -35.6767 -35.6767 -35.6766 -35.6766 -35.6765 -35.6765 -35.6764
   -35.6764 -35.6764 -35.6764 -35.6764 -35.6763 -35.6763 -35.6763 -35.6763
   -35.6762 -35.6762 -35.6762 -35.6761 -35.6761 -35.6761 -35.6761 -35.6760
   -35.6760 -35.6760 -35.6759 -35.6758 -35.6758 -35.6758 -35.6758 -35.6757
   -35.6757 -35.6756 -35.6755 -35.6755 -35.6754 -35.6754 -35.6753 -35.6752
   -35.6752 -35.6751 -35.6751 -35.6751 -35.6750 -35.6750 -35.6750 -35.6749
   -35.6749 -35.6748 -35.6748 -35.6748 -35.6746 -35.6745 -35.6744 -35.6738
   -35.6724 -35.6720 -35.6623 -35.6604 -35.6603 -35.6600 -35.6599 -35.6597
   -35.6596 -35.6595 -35.6595 -35.6595 -35.6593 -35.6593 -35.6592 -35.6592
   -35.6590 -35.6590 -35.6588 -35.6583 -35.6579 -35.6578 -35.6575 -35.6572
   -35.6569 -35.6569 -35.6569 -35.6567 -35.6566 -35.6566 -35.6565 -35.6565
   -35.6563 -35.6563 -35.6563 -35.6561 -35.6560 -35.6540 -26.5645 -26.5645
   -26.5504 -26.5500 -26.5500 -26.5497 -26.5480 -26.5476 -26.5476 -26.5472
   -26.5168 -26.5165 -26.5165 -26.5162 -26.4974 -26.4971 -26.4971 -26.4968
   -26.4943 -26.4943 -26.4527 -26.4527 -26.4512 -26.4510 -26.4510 -26.4508
   -26.4480 -26.4480 -26.4412 -26.4412 -26.4412 -26.4411 -26.4382 -26.4382
   -26.4329 -26.4328 -26.4328 -26.4328 -26.4314 -26.4313 -26.4256 -26.4255
   -26.4255 -26.4255 -26.4236 -26.4236 -26.4232 -26.4231 -26.4183 -26.4183
   -26.4182 -26.4182 -26.4147 -26.4147  -2.6329  -2.4901  -1.9778  -1.8476
    -1.7041  -1.7028  -1.5838  -1.5824  -1.4536  -1.2804  -1.2793  -1.2153
    -1.1851  -1.1840  -1.1467  -1.1226  -1.0645  -0.9859  -0.9851  -0.9361
    -0.8246  -0.8237  -0.8047  -0.8039  -0.7791  -0.7780  -0.7667  -0.7659
    -0.7177  -0.6654  -0.6642  -0.6249  -0.5348  -0.5333  -0.4946  -0.4931
     5.7059   5.9196   6.0977   6.2327   6.2329   6.3900   6.4069   6.4072
     6.4729   6.4740   6.4744   6.5593   6.5596   6.6538   6.6552   6.8076
     6.8085   6.9137   6.9145   7.0000   7.0010   7.0287   7.1296   7.1958
     7.2345   7.2349   7.2781   7.2792   7.3187   7.3196   7.5200   7.5208
     7.5553   7.6174   7.6384   7.6395   7.6720   7.8039   7.8047   7.9694
     7.9705   7.9935   7.9948   8.0452   8.0674   8.0679   8.1857   8.1865
     8.2298   8.2304   8.2845   8.3969   8.3975   8.5937   8.7009   8.7016
     8.8262   8.8269   8.8578   8.8579   8.8998   8.9438   8.9443   8.9636
     8.9830   8.9843   9.0770   9.1002   9.1517   9.1529   9.1542   9.4624
     9.4794   9.4848   9.5404   9.7845   9.7864   9.8540   9.9517   9.9530
     9.9729   9.9740   9.9769   9.9783   9.9797   9.9808  10.0170  10.0192
    10.0204  10.0323  10.0865  10.0986  10.1151  10.1164  10.1479  10.2745
    10.2757  10.2829  10.2875  10.2883  10.3242  10.4999  10.5653  10.5727
    10.5737  10.6650  10.6953  10.7796  10.9402  10.9481  10.9829  10.9845
    11.0194  11.0207  11.0466  11.0479  11.0691  11.0986  11.0999  11.1362
    11.5653  11.5662  11.6893  11.6904  11.8213  12.1095

     highest occupied level (ev):    12.1097

!    total energy              =  -11463.73761360 Ry
     estimated scf accuracy    <          3.3E-11 Ry

     The total energy is the sum of the following terms:
     one-electron contribution =   -5893.91610744 Ry
     hartree contribution      =    3184.12567718 Ry
     xc contribution           =   -2339.57643614 Ry
     ewald contribution        =   -6412.43675150 Ry
     Dispersion Correction     =      -1.93399571 Ry

     convergence has been achieved in  24 iterations

     Forces acting on atoms (cartesian axes, Ry/au):

     atom    1 type  1   force =    -0.00474001    0.00001519   -0.00720048
     atom    2 type  1   force =     0.00007619   -0.00021313   -0.00021998
     atom    3 type  1   force =     0.00007622    0.00021143   -0.00022176
     atom    4 type  1   force =     0.00005851   -0.00022107   -0.00022318
     atom    5 type  1   force =     0.00006049    0.00022236   -0.00021855
     atom    6 type  1   force =     0.00005759   -0.00000044    0.00002481
     atom    7 type  1   force =     0.00006076    0.00020073   -0.00022243
     atom    8 type  1   force =     0.00005729    0.00000021    0.00002480
     atom    9 type  1   force =     0.00005856   -0.00020422   -0.00021938
     atom   10 type  1   force =     0.00000024    0.00000221    0.00000047
     atom   11 type  1   force =    -0.00000060    0.00000017    0.00000471
     atom   12 type  1   force =     0.00000036   -0.00000208   -0.00000001
     atom   13 type  1   force =     0.00000411   -0.00000005    0.00000040
     atom   14 type  1   force =     0.00000059    0.00000258    0.00001072
     atom   15 type  1   force =     0.00000052   -0.00000229    0.00001056
     atom   16 type  1   force =     0.00000304    0.00000213    0.00000474
     atom   17 type  1   force =     0.00000311   -0.00000208    0.00000471
     atom   18 type  1   force =    -0.00000360    0.00000004    0.00001048
     atom   19 type  2   force =     0.00000497   -0.00000015    0.00038485
     atom   20 type  2   force =     0.00000095    0.00000612    0.00041716
     atom   21 type  2   force =     0.00000154    0.00000243    0.00041495
     atom   22 type  2   force =    -0.00000158   -0.00000263    0.00041812
     atom   23 type  2   force =     0.00000573   -0.00000225    0.00041399
     atom   24 type  2   force =    -0.00000225   -0.00000001    0.00040754
     atom   25 type  2   force =    -0.00000397   -0.00000205    0.00041930
     atom   26 type  2   force =    -0.00000037    0.00000004    0.00041179
     atom   27 type  2   force =     0.00000387   -0.00000184    0.00041297
     atom   28 type  2   force =     0.00182909   -0.00089066    0.00163678
     atom   29 type  2   force =     0.00001011   -0.00000117   -0.00035854
     atom   30 type  2   force =     0.00006895   -0.00012594    0.00015892
     atom   31 type  2   force =     0.00028675    0.00101005    0.00089096
     atom   32 type  2   force =     0.00004890    0.00007662   -0.00033389
     atom   33 type  2   force =    -0.00002974   -0.00003078   -0.00036565
     atom   34 type  2   force =     0.00000911   -0.00000055   -0.00037232
     atom   35 type  2   force =     0.00000675    0.00000195   -0.00034536
     atom   36 type  2   force =    -0.00008343   -0.00004533   -0.00034998
     atom   37 type  2   force =     0.00006629    0.00012834    0.00098577
     atom   38 type  2   force =     0.00000875    0.00000165    0.00046788
     atom   39 type  2   force =     0.00175268    0.00084531    0.00238942
     atom   40 type  2   force =     0.00028841   -0.00097942    0.00169397
     atom   41 type  2   force =    -0.00003079    0.00003105    0.00046088
     atom   42 type  2   force =     0.00004696   -0.00007566    0.00049269
     atom   43 type  2   force =     0.00000597   -0.00000164    0.00048276
     atom   44 type  2   force =     0.00000841    0.00000027    0.00045331
     atom   45 type  2   force =    -0.00008440    0.00004490    0.00047684
     atom   46 type  2   force =     0.00000485   -0.00000019   -0.00044156
     atom   47 type  2   force =     0.00000155   -0.00000264   -0.00041117
     atom   48 type  2   force =     0.00000111   -0.00000640   -0.00040898
     atom   49 type  2   force =     0.00000588    0.00000226   -0.00041211
     atom   50 type  2   force =    -0.00000150    0.00000274   -0.00040796
     atom   51 type  2   force =    -0.00000241    0.00000003   -0.00041878
     atom   52 type  2   force =     0.00000390    0.00000192   -0.00041346
     atom   53 type  2   force =    -0.00000039   -0.00000007   -0.00041470
     atom   54 type  2   force =    -0.00000402    0.00000204   -0.00040703

     Total force =     0.010163     Total SCF correction =     0.000031


     Computing stress (Cartesian axis) and pressure

          total   stress  (Ry/bohr**3)                   (kbar)     P=      -33.96
  -0.00027940  -0.00000039   0.00000002          -41.10       -0.06        0.00
  -0.00000039  -0.00027939  -0.00000000           -0.06      -41.10       -0.00
   0.00000002  -0.00000000  -0.00013374            0.00       -0.00      -19.67


     Writing all to output data dir ./WSe.save/ :
     XML data file, charge density, pseudopotentials, collected wavefunctions
 
     init_run     :     11.17s CPU     13.15s WALL (       1 calls)
     electrons    :    804.76s CPU    964.85s WALL (       1 calls)
     forces       :      7.95s CPU      8.45s WALL (       1 calls)
     force_london :      0.04s CPU      0.04s WALL (       1 calls)
     stress       :    121.52s CPU    126.93s WALL (       1 calls)
     stres_london :      0.04s CPU      0.04s WALL (       1 calls)

     Called by init_run:
     wfcinit      :     10.17s CPU     11.97s WALL (       1 calls)
     potinit      :      0.07s CPU      0.10s WALL (       1 calls)
     hinit0       :      0.46s CPU      0.58s WALL (       1 calls)

     Called by electrons:
     c_bands      :    758.40s CPU    908.56s WALL (      25 calls)
     sum_band     :     43.88s CPU     51.87s WALL (      25 calls)
     v_of_rho     :      1.69s CPU      1.91s WALL (      25 calls)
     mix_rho      :      0.59s CPU      0.68s WALL (      25 calls)
     energy_londo :      0.06s CPU      0.06s WALL (       1 calls)

     Called by c_bands:
     init_us_2    :      9.76s CPU      9.89s WALL (     159 calls)
     init_us_2:cp :      9.75s CPU      9.88s WALL (     159 calls)
     cegterg      :    725.87s CPU    863.65s WALL (      75 calls)

     Called by *egterg:
     cdiaghg      :     45.63s CPU    115.75s WALL (     447 calls)
     h_psi        :    415.90s CPU    456.54s WALL (     453 calls)
     g_psi        :      1.77s CPU      1.82s WALL (     375 calls)

     Called by h_psi:
     h_psi:calbec :    108.92s CPU    115.20s WALL (     453 calls)
     vloc_psi     :    206.20s CPU    239.23s WALL (     453 calls)
     add_vuspsi   :     96.54s CPU     97.13s WALL (     453 calls)

     General routines
     calbec       :    116.48s CPU    125.59s WALL (     468 calls)
     fft          :      1.26s CPU      1.55s WALL (     275 calls)
     ffts         :      0.15s CPU      0.47s WALL (      25 calls)
     fftw         :    215.30s CPU    250.72s WALL (  195790 calls)
 
     Parallel routines
     fft_scatt_xy :     28.51s CPU     32.58s WALL (  196090 calls)
     fft_scatt_yz :    119.27s CPU    142.27s WALL (  196090 calls)
 
     PWSCF        :  15m47.47s CPU  18m51.34s WALL

 
   This run was terminated on:  17:28:10   5Nov2024            

=------------------------------------------------------------------------------=
   JOB DONE.
=------------------------------------------------------------------------------=
