
     Program PWSCF v.7.3 starts on  5Nov2024 at 17:28:23 

     This program is part of the open-source Quantum ESPRESSO suite
     for quantum simulation of materials; please cite
         "P. Giannozzi et al., J. Phys.:Condens. Matter 21 395502 (2009);
         "P. Giannozzi et al., J. Phys.:Condens. Matter 29 465901 (2017);
         "P. Giannozzi et al., J. Chem. Phys. 152 154105 (2020);
          URL http://www.quantum-espresso.org", 
     in publications or presentations arising from this work. More details at
     http://www.quantum-espresso.org/quote

     Parallel version (MPI & OpenMP), running on     256 processor cores
     Number of MPI processes:               256
     Threads/MPI process:                     1

     MPI processes distributed on     1 nodes
     467945 MiB available memory on the printing compute node when the environment starts
 
     Waiting for input...
     Reading input from standard input

     Current dimensions of program PWSCF are:
     Max number of different atomic species (ntypx) = 10
     Max number of k-points (npk) =  40000
     Max angular momentum in pseudopotentials (lmaxx) =  4
 
     K-points division:     npool     =       4
     R & G space division:  proc/nbgrp/npool/nimage =      64
     Subspace diagonalization in iterative solution of the eigenvalue problem:
     one sub-group per band group will be used
     scalapack distributed-memory algorithm (size of sub-group:  4*  4 procs)

 
     Parallelization info
     --------------------
     sticks:   dense  smooth     PW     G-vecs:    dense   smooth      PW
     Min         127     127     32                11935    11935    1572
     Max         128     128     33                11944    11944    1585
     Sum        8161    8161   2107               764097   764097  101141
 
     Using Pencil Decomposition
 


     bravais-lattice index     =            0
     lattice parameter (alat)  =      19.2612  a.u.
     unit-cell volume          =    7907.2529 (a.u.)^3
     number of atoms/cell      =           54
     number of atomic types    =            2
     number of electrons       =       828.00
     number of Kohn-Sham states=          414
     kinetic-energy cutoff     =      80.0000  Ry
     charge density cutoff     =     320.0000  Ry
     scf convergence threshold =      1.0E-10
     mixing beta               =       0.5000
     number of iterations used =            8  plain     mixing
     Exchange-correlation= PBE
                           (   1   4   3   4   0   0   0)

     celldm(1)=  19.261185  celldm(2)=   0.000000  celldm(3)=   0.000000
     celldm(4)=   0.000000  celldm(5)=   0.000000  celldm(6)=   0.000000

     crystal axes: (cart. coord. in units of alat)
               a(1) = (   1.000000   0.000000   0.000000 )  
               a(2) = (  -0.500000   0.866025   0.000000 )  
               a(3) = (   0.000000   0.000000   1.277750 )  

     reciprocal axes: (cart. coord. in units 2 pi/alat)
               b(1) = (  1.000000  0.577350  0.000000 )  
               b(2) = (  0.000000  1.154701  0.000000 )  
               b(3) = (  0.000000  0.000000  0.782626 )  


     PseudoPot. # 1 for W  read from file:
     /users/rkarkee/pbe_pseudo/W.upf
     MD5 check sum: cb94e439a9e4ea809831d6e90c63864e
     Pseudo is Norm-conserving + core correction, Zval = 14.0
     Generated using ONCVPSP code by D. R. Hamann
     Using radial grid of 1396 points,  8 beta functions with: 
                l(1) =   0
                l(2) =   0
                l(3) =   1
                l(4) =   1
                l(5) =   2
                l(6) =   2
                l(7) =   3
                l(8) =   3

     PseudoPot. # 2 for Se read from file:
     /users/rkarkee/pbe_pseudo/Se.upf
     MD5 check sum: 3cc46b3642295b3f4fdae63b742ce36d
     Pseudo is Norm-conserving + core correction, Zval = 16.0
     Generated using ONCVPSP code by D. R. Hamann
     Using radial grid of 1214 points,  6 beta functions with: 
                l(1) =   0
                l(2) =   0
                l(3) =   1
                l(4) =   1
                l(5) =   2
                l(6) =   2

     atomic species   valence    mass     pseudopotential
     W                14.00   183.84000     W ( 1.00)
     Se               16.00    78.96000     Se( 1.00)

     No symmetry found



   Cartesian axes

     site n.     atom                  positions (alat units)
         1        W      tau(   1) = (  -0.0000000   0.1924501   0.9583127  )
         2        W      tau(   2) = (   0.3333333   0.1924501   0.9583127  )
         3        W      tau(   3) = (   0.6666667   0.1924501   0.9583127  )
         4        W      tau(   4) = (  -0.1666667   0.4811252   0.9583127  )
         5        W      tau(   5) = (   0.1666667   0.4811252   0.9583127  )
         6        W      tau(   6) = (   0.5000000   0.4811252   0.9583127  )
         7        W      tau(   7) = (  -0.3333333   0.7698004   0.9583127  )
         8        W      tau(   8) = (   0.0000000   0.7698004   0.9583127  )
         9        W      tau(   9) = (   0.3333333   0.7698004   0.9583127  )
        10        W      tau(  10) = (   0.1666667   0.0962250   0.3194376  )
        11        W      tau(  11) = (   0.5000000   0.0962250   0.3194376  )
        12        W      tau(  12) = (   0.8333333   0.0962250   0.3194376  )
        13        W      tau(  13) = (  -0.0000000   0.3849002   0.3194376  )
        14        W      tau(  14) = (   0.3333333   0.3849002   0.3194376  )
        15        W      tau(  15) = (   0.6666667   0.3849002   0.3194376  )
        16        W      tau(  16) = (  -0.1666667   0.6735753   0.3194376  )
        17        W      tau(  17) = (   0.1666667   0.6735753   0.3194376  )
        18        W      tau(  18) = (   0.5000000   0.6735753   0.3194376  )
        19        Se     tau(  19) = (   0.0006400   0.1924501   0.1584873  )
        20        Se     tau(  20) = (   0.3333333   0.1924501   0.1576696  )
        21        Se     tau(  21) = (   0.6666667   0.1924501   0.1576696  )
        22        Se     tau(  22) = (  -0.1666667   0.4811252   0.1576696  )
        23        Se     tau(  23) = (   0.1666667   0.4811252   0.1576696  )
        24        Se     tau(  24) = (   0.5000000   0.4811252   0.1576696  )
        25        Se     tau(  25) = (  -0.3333333   0.7698004   0.1576696  )
        26        Se     tau(  26) = (   0.0000000   0.7698004   0.1576696  )
        27        Se     tau(  27) = (   0.3333333   0.7698004   0.1576696  )
        28        Se     tau(  28) = (   0.1666667   0.0962250   1.1200807  )
        29        Se     tau(  29) = (   0.5000000   0.0962250   1.1200807  )
        30        Se     tau(  30) = (   0.8333333   0.0962250   1.1200807  )
        31        Se     tau(  31) = (  -0.0000000   0.3849002   1.1200807  )
        32        Se     tau(  32) = (   0.3333333   0.3849002   1.1200807  )
        33        Se     tau(  33) = (   0.6666667   0.3849002   1.1200807  )
        34        Se     tau(  34) = (  -0.1666667   0.6735753   1.1200807  )
        35        Se     tau(  35) = (   0.1666667   0.6735753   1.1200807  )
        36        Se     tau(  36) = (   0.5000000   0.6735753   1.1200807  )
        37        Se     tau(  37) = (   0.1666667   0.0962250   0.7965447  )
        38        Se     tau(  38) = (   0.5000000   0.0962250   0.7965447  )
        39        Se     tau(  39) = (   0.8333333   0.0962250   0.7965447  )
        40        Se     tau(  40) = (  -0.0000000   0.3849002   0.7965447  )
        41        Se     tau(  41) = (   0.3333333   0.3849002   0.7965447  )
        42        Se     tau(  42) = (   0.6666667   0.3849002   0.7965447  )
        43        Se     tau(  43) = (  -0.1666667   0.6735753   0.7965447  )
        44        Se     tau(  44) = (   0.1666667   0.6735753   0.7965447  )
        45        Se     tau(  45) = (   0.5000000   0.6735753   0.7965447  )
        46        Se     tau(  46) = (  -0.0000000   0.1924501   0.4812056  )
        47        Se     tau(  47) = (   0.3333333   0.1924501   0.4812056  )
        48        Se     tau(  48) = (   0.6666667   0.1924501   0.4812056  )
        49        Se     tau(  49) = (  -0.1666667   0.4811252   0.4812056  )
        50        Se     tau(  50) = (   0.1666667   0.4811252   0.4812056  )
        51        Se     tau(  51) = (   0.5000000   0.4811252   0.4812056  )
        52        Se     tau(  52) = (  -0.3333333   0.7698004   0.4812056  )
        53        Se     tau(  53) = (   0.0000000   0.7698004   0.4812056  )
        54        Se     tau(  54) = (   0.3333333   0.7698004   0.4812056  )

     -------------------------------------------------
     Parameters for Dispersion (Grimme-D2) Correction:
     -------------------------------------------------
       atom      VdW radius       C_6     

        W          3.349       2818.308
        Se         3.347        438.498

     number of k points=    12
                       cart. coord. in units 2pi/alat
        k(    1) = (   0.2500000   0.4330127   0.1956564), wk =   0.1666667
        k(    2) = (   0.2500000  -0.1443376   0.1956564), wk =   0.1666667
        k(    3) = (  -0.2500000  -0.4330127   0.1956564), wk =   0.1666667
        k(    4) = (  -0.2500000   0.4330127  -0.1956564), wk =   0.1666667
        k(    5) = (   0.2500000  -0.4330127  -0.1956564), wk =   0.1666667
        k(    6) = (   0.5000000  -0.0000000   0.1956564), wk =   0.1666667
        k(    7) = (  -0.5000000   0.0000000   0.1956564), wk =   0.1666667
        k(    8) = (  -0.2500000   0.1443376   0.1956564), wk =   0.1666667
        k(    9) = (  -0.2500000  -0.1443376  -0.1956564), wk =   0.1666667
        k(   10) = (   0.2500000   0.1443376  -0.1956564), wk =   0.1666667
        k(   11) = (   0.0000000  -0.2886751   0.1956564), wk =   0.1666667
        k(   12) = (  -0.0000000   0.2886751   0.1956564), wk =   0.1666667

     Dense  grid:   764097 G-vectors     FFT dimensions: ( 120, 120, 144)

     Estimated max dynamical RAM per process >     128.15 MB

     Estimated total dynamical RAM >      31.49 GB

     Initial potential from superposition of free atoms

     starting charge     827.9882, renormalised to     828.0000
     Starting wfcs are  504 randomized atomic wfcs

     total cpu time spent up to now is       13.7 secs

     Self-consistent Calculation

     iteration #  1     ecut=    80.00 Ry     beta= 0.50
     Davidson diagonalization with overlap
     ethr =  1.00E-02,  avg # of iterations =  2.0

     Threshold (ethr) on eigenvalues was too large:
     Diagonalizing with lowered threshold

     Davidson diagonalization with overlap
     ethr =  8.84E-05,  avg # of iterations =  5.5

     total cpu time spent up to now is       95.8 secs

     total energy              =  -11463.59338008 Ry
     estimated scf accuracy    <       1.06166496 Ry

     iteration #  2     ecut=    80.00 Ry     beta= 0.50
     Davidson diagonalization with overlap
     ethr =  1.28E-04,  avg # of iterations =  2.0

     total cpu time spent up to now is      129.4 secs

     total energy              =  -11463.71439596 Ry
     estimated scf accuracy    <       0.11252392 Ry

     iteration #  3     ecut=    80.00 Ry     beta= 0.50
     Davidson diagonalization with overlap
     ethr =  1.36E-05,  avg # of iterations =  6.0

     total cpu time spent up to now is      176.7 secs

     total energy              =  -11463.71658674 Ry
     estimated scf accuracy    <       0.10586950 Ry

     iteration #  4     ecut=    80.00 Ry     beta= 0.50
     Davidson diagonalization with overlap
     ethr =  1.28E-05,  avg # of iterations =  5.5

     total cpu time spent up to now is      213.9 secs

     total energy              =  -11463.73661649 Ry
     estimated scf accuracy    <       0.00767467 Ry

     iteration #  5     ecut=    80.00 Ry     beta= 0.50
     Davidson diagonalization with overlap
     ethr =  9.27E-07,  avg # of iterations =  5.5

     total cpu time spent up to now is      260.1 secs

     total energy              =  -11463.73618483 Ry
     estimated scf accuracy    <       0.01164607 Ry

     iteration #  6     ecut=    80.00 Ry     beta= 0.50
     Davidson diagonalization with overlap
     ethr =  9.27E-07,  avg # of iterations =  4.9

     total cpu time spent up to now is      297.5 secs

     total energy              =  -11463.73681690 Ry
     estimated scf accuracy    <       0.00315906 Ry

     iteration #  7     ecut=    80.00 Ry     beta= 0.50
     Davidson diagonalization with overlap
     ethr =  3.82E-07,  avg # of iterations =  8.0

     total cpu time spent up to now is      348.0 secs

     total energy              =  -11463.73799691 Ry
     estimated scf accuracy    <       0.01029460 Ry

     iteration #  8     ecut=    80.00 Ry     beta= 0.50
     Davidson diagonalization with overlap
     ethr =  3.82E-07,  avg # of iterations =  3.9

     total cpu time spent up to now is      379.9 secs

     total energy              =  -11463.73679375 Ry
     estimated scf accuracy    <       0.00544620 Ry

     iteration #  9     ecut=    80.00 Ry     beta= 0.50
     Davidson diagonalization with overlap
     ethr =  3.82E-07,  avg # of iterations =  6.0

     total cpu time spent up to now is      419.7 secs

     total energy              =  -11463.73762516 Ry
     estimated scf accuracy    <       0.00008010 Ry

     iteration # 10     ecut=    80.00 Ry     beta= 0.50
     Davidson diagonalization with overlap
     ethr =  9.67E-09,  avg # of iterations =  5.6

     total cpu time spent up to now is      465.9 secs

     total energy              =  -11463.73765591 Ry
     estimated scf accuracy    <       0.00001095 Ry

     iteration # 11     ecut=    80.00 Ry     beta= 0.50
     Davidson diagonalization with overlap
     ethr =  1.32E-09,  avg # of iterations =  7.1

     total cpu time spent up to now is      514.2 secs

     total energy              =  -11463.73765325 Ry
     estimated scf accuracy    <       0.00005766 Ry

     iteration # 12     ecut=    80.00 Ry     beta= 0.50
     Davidson diagonalization with overlap
     ethr =  1.32E-09,  avg # of iterations =  6.2

     total cpu time spent up to now is      554.8 secs

     total energy              =  -11463.73765337 Ry
     estimated scf accuracy    <       0.00000909 Ry

     iteration # 13     ecut=    80.00 Ry     beta= 0.50
     Davidson diagonalization with overlap
     ethr =  1.10E-09,  avg # of iterations =  6.0

     total cpu time spent up to now is      599.4 secs

     total energy              =  -11463.73765597 Ry
     estimated scf accuracy    <       0.00000583 Ry

     iteration # 14     ecut=    80.00 Ry     beta= 0.50
     Davidson diagonalization with overlap
     ethr =  7.04E-10,  avg # of iterations =  2.0

     total cpu time spent up to now is      628.5 secs

     total energy              =  -11463.73765547 Ry
     estimated scf accuracy    <       0.00000277 Ry

     iteration # 15     ecut=    80.00 Ry     beta= 0.50
     Davidson diagonalization with overlap
     ethr =  3.35E-10,  avg # of iterations =  6.0

     total cpu time spent up to now is      669.0 secs

     total energy              =  -11463.73765602 Ry
     estimated scf accuracy    <       0.00000020 Ry

     iteration # 16     ecut=    80.00 Ry     beta= 0.50
     Davidson diagonalization with overlap
     ethr =  2.39E-11,  avg # of iterations =  6.0

     total cpu time spent up to now is      709.1 secs

     total energy              =  -11463.73765601 Ry
     estimated scf accuracy    <       0.00000024 Ry

     iteration # 17     ecut=    80.00 Ry     beta= 0.50
     Davidson diagonalization with overlap
     ethr =  2.39E-11,  avg # of iterations =  3.0

     total cpu time spent up to now is      740.3 secs

     total energy              =  -11463.73765601 Ry
     estimated scf accuracy    <       0.00000007 Ry

     iteration # 18     ecut=    80.00 Ry     beta= 0.50
     Davidson diagonalization with overlap
     ethr =  8.46E-12,  avg # of iterations =  6.7

     total cpu time spent up to now is      786.5 secs

     total energy              =  -11463.73765603 Ry
     estimated scf accuracy    <       0.00000005 Ry

     iteration # 19     ecut=    80.00 Ry     beta= 0.50
     Davidson diagonalization with overlap
     ethr =  6.54E-12,  avg # of iterations =  2.0

     total cpu time spent up to now is      815.0 secs

     total energy              =  -11463.73765602 Ry
     estimated scf accuracy    <       0.00000003 Ry

     iteration # 20     ecut=    80.00 Ry     beta= 0.50
     Davidson diagonalization with overlap
     ethr =  3.85E-12,  avg # of iterations =  7.0

     total cpu time spent up to now is      854.7 secs

     total energy              =  -11463.73765603 Ry
     estimated scf accuracy    <          9.1E-09 Ry

     iteration # 21     ecut=    80.00 Ry     beta= 0.50
     Davidson diagonalization with overlap
     ethr =  1.10E-12,  avg # of iterations =  5.2

     total cpu time spent up to now is      886.8 secs

     total energy              =  -11463.73765603 Ry
     estimated scf accuracy    <          5.8E-09 Ry

     iteration # 22     ecut=    80.00 Ry     beta= 0.50
     Davidson diagonalization with overlap
     ethr =  6.96E-13,  avg # of iterations =  6.0

     total cpu time spent up to now is      918.0 secs

     total energy              =  -11463.73765603 Ry
     estimated scf accuracy    <          3.9E-09 Ry

     iteration # 23     ecut=    80.00 Ry     beta= 0.50
     Davidson diagonalization with overlap
     ethr =  4.73E-13,  avg # of iterations =  7.0

     total cpu time spent up to now is      954.0 secs

     total energy              =  -11463.73765603 Ry
     estimated scf accuracy    <          4.8E-10 Ry

     iteration # 24     ecut=    80.00 Ry     beta= 0.50
     Davidson diagonalization with overlap
     ethr =  1.00E-13,  avg # of iterations =  6.1

     total cpu time spent up to now is      989.9 secs

     total energy              =  -11463.73765603 Ry
     estimated scf accuracy    <          1.5E-10 Ry

     iteration # 25     ecut=    80.00 Ry     beta= 0.50
     Davidson diagonalization with overlap
     ethr =  1.00E-13,  avg # of iterations =  2.0

     total cpu time spent up to now is     1018.2 secs

     total energy              =  -11463.73765603 Ry
     estimated scf accuracy    <          1.1E-10 Ry

     iteration # 26     ecut=    80.00 Ry     beta= 0.50
     Davidson diagonalization with overlap
     ethr =  1.00E-13,  avg # of iterations =  1.0

     total cpu time spent up to now is     1043.2 secs

     End of self-consistent calculation

          k = 0.2500 0.4330 0.1957 ( 95526 PWs)   bands (ev):

   -62.2843 -62.2840 -62.2831 -62.2826 -62.2826 -62.2825 -62.2805 -62.2801
   -62.2800 -62.2800 -62.2797 -62.2793 -62.2790 -62.2790 -62.2790 -62.2786
   -62.2785 -62.2778 -35.7206 -35.7205 -35.7179 -35.7178 -35.7177 -35.7176
   -35.7176 -35.7176 -35.7175 -35.7174 -35.7174 -35.7173 -35.7172 -35.7172
   -35.7172 -35.7171 -35.7171 -35.7171 -35.7170 -35.7170 -35.7170 -35.7169
   -35.7169 -35.7169 -35.7169 -35.7169 -35.7168 -35.7168 -35.7168 -35.7167
   -35.7167 -35.7166 -35.7166 -35.7165 -35.7165 -35.7164 -35.7164 -35.7164
   -35.7164 -35.7163 -35.7162 -35.7161 -35.7161 -35.7161 -35.7160 -35.7160
   -35.7157 -35.7157 -35.7157 -35.7156 -35.7154 -35.7154 -35.7153 -35.7151
   -35.7150 -35.7150 -35.7150 -35.7149 -35.7148 -35.7148 -35.7148 -35.7148
   -35.7147 -35.7147 -35.7146 -35.7145 -35.7144 -35.7144 -35.7143 -35.7143
   -35.7141 -35.7140 -35.6794 -35.6791 -35.6775 -35.6775 -35.6773 -35.6772
   -35.6771 -35.6770 -35.6769 -35.6769 -35.6769 -35.6768 -35.6768 -35.6767
   -35.6767 -35.6766 -35.6766 -35.6766 -35.6766 -35.6766 -35.6765 -35.6765
   -35.6765 -35.6764 -35.6764 -35.6763 -35.6763 -35.6763 -35.6763 -35.6763
   -35.6762 -35.6761 -35.6761 -35.6761 -35.6761 -35.6760 -35.6760 -35.6759
   -35.6759 -35.6759 -35.6759 -35.6759 -35.6758 -35.6758 -35.6758 -35.6757
   -35.6757 -35.6757 -35.6757 -35.6756 -35.6756 -35.6755 -35.6755 -35.6755
   -35.6754 -35.6753 -35.6753 -35.6753 -35.6752 -35.6751 -35.6751 -35.6751
   -35.6750 -35.6750 -35.6749 -35.6749 -35.6749 -35.6749 -35.6748 -35.6747
   -35.6746 -35.6746 -35.6614 -35.6604 -35.6602 -35.6599 -35.6599 -35.6596
   -35.6596 -35.6596 -35.6596 -35.6595 -35.6593 -35.6592 -35.6591 -35.6590
   -35.6589 -35.6589 -35.6588 -35.6587 -35.6580 -35.6577 -35.6576 -35.6574
   -35.6571 -35.6571 -35.6570 -35.6569 -35.6568 -35.6567 -35.6566 -35.6564
   -35.6564 -35.6564 -35.6562 -35.6562 -35.6561 -35.6560 -26.5696 -26.5694
   -26.5691 -26.5691 -26.5624 -26.5619 -26.5456 -26.5451 -26.5354 -26.5352
   -26.5349 -26.5349 -26.4812 -26.4808 -26.4777 -26.4776 -26.4772 -26.4772
   -26.4759 -26.4755 -26.4597 -26.4595 -26.4592 -26.4592 -26.4569 -26.4567
   -26.4564 -26.4564 -26.4486 -26.4483 -26.4434 -26.4431 -26.4415 -26.4410
   -26.4410 -26.4410 -26.4301 -26.4299 -26.4296 -26.4296 -26.4270 -26.4265
   -26.4264 -26.4264 -26.4218 -26.4214 -26.4211 -26.4211 -26.4211 -26.4208
   -26.4203 -26.4199 -26.4193 -26.4192  -2.4565  -2.3161  -2.1287  -2.1273
    -1.9947  -1.9930  -1.3635  -1.3586  -1.3573  -1.2567  -1.2552  -1.1976
    -1.1970  -1.1383  -1.0234  -0.9991  -0.9978  -0.9973  -0.9966  -0.9502
    -0.9333  -0.9319  -0.8729  -0.8250  -0.8128  -0.8122  -0.6871  -0.6864
    -0.6449  -0.6435  -0.6431  -0.5754  -0.5746  -0.5744  -0.5619  -0.5258
     5.8483   5.8492   5.9321   6.0209   6.0218   6.0688   6.2224   6.3325
     6.3333   6.5105   6.5594   6.6043   6.6076   6.6083   6.7380   6.7389
     6.9143   6.9521   6.9660   6.9670   7.0180   7.0189   7.0663   7.0668
     7.0969   7.1997   7.3612   7.3621   7.4969   7.4975   7.6370   7.6380
     7.6968   7.7041   7.7053   7.7518   7.8643   7.8646   7.8671   7.8677
     7.8834   7.9167   7.9169   8.0432   8.0616   8.0631   8.4557   8.5350
     8.5360   8.5382   8.5389   8.5935   8.6191   8.6458   8.6692   8.7835
     8.7841   8.7847   8.8268   8.8278   8.8570   8.8867   8.8875   8.9080
     8.9129   8.9515   8.9516   9.0934   9.2842   9.3478   9.3491   9.4046
     9.4057   9.4786   9.4795   9.4923   9.4937   9.5971   9.6133   9.6316
     9.8147   9.8378   9.8384   9.8700   9.8708   9.8711   9.8718   9.8968
     9.9634   9.9742   9.9750  10.0298  10.0496  10.0966  10.0974  10.1719
    10.1726  10.1982  10.3240  10.3250  10.4058  10.4068  10.5149  10.5168
    10.5654  10.9153  10.9164  11.0290  11.1378  11.1384  11.1547  11.1557
    11.1605  11.1611  11.2878  11.2887  11.2910  11.2919  11.3030  11.3039
    11.3204  11.3810  11.3918  11.5464  11.6443  11.7841

          k = 0.2500-0.1443 0.1957 ( 95551 PWs)   bands (ev):

   -62.2850 -62.2847 -62.2824 -62.2821 -62.2815 -62.2811 -62.2811 -62.2811
   -62.2801 -62.2800 -62.2798 -62.2798 -62.2794 -62.2794 -62.2784 -62.2784
   -62.2784 -62.2777 -35.7206 -35.7206 -35.7180 -35.7179 -35.7177 -35.7177
   -35.7177 -35.7176 -35.7175 -35.7175 -35.7175 -35.7173 -35.7173 -35.7173
   -35.7172 -35.7172 -35.7171 -35.7171 -35.7171 -35.7171 -35.7171 -35.7170
   -35.7170 -35.7170 -35.7169 -35.7169 -35.7168 -35.7167 -35.7167 -35.7167
   -35.7166 -35.7166 -35.7165 -35.7165 -35.7165 -35.7164 -35.7163 -35.7163
   -35.7163 -35.7161 -35.7160 -35.7158 -35.7158 -35.7157 -35.7157 -35.7156
   -35.7156 -35.7154 -35.7154 -35.7153 -35.7153 -35.7153 -35.7153 -35.7152
   -35.7152 -35.7150 -35.7150 -35.7150 -35.7150 -35.7149 -35.7148 -35.7148
   -35.7148 -35.7147 -35.7147 -35.7147 -35.7147 -35.7145 -35.7144 -35.7144
   -35.7144 -35.7141 -35.6794 -35.6791 -35.6776 -35.6776 -35.6772 -35.6771
   -35.6770 -35.6770 -35.6770 -35.6770 -35.6769 -35.6768 -35.6768 -35.6767
   -35.6767 -35.6767 -35.6766 -35.6765 -35.6765 -35.6765 -35.6765 -35.6764
   -35.6764 -35.6764 -35.6763 -35.6763 -35.6763 -35.6763 -35.6762 -35.6762
   -35.6762 -35.6762 -35.6762 -35.6761 -35.6761 -35.6761 -35.6761 -35.6760
   -35.6760 -35.6759 -35.6759 -35.6759 -35.6759 -35.6758 -35.6758 -35.6758
   -35.6758 -35.6757 -35.6757 -35.6757 -35.6757 -35.6755 -35.6755 -35.6755
   -35.6754 -35.6754 -35.6753 -35.6753 -35.6752 -35.6752 -35.6752 -35.6751
   -35.6750 -35.6750 -35.6749 -35.6749 -35.6748 -35.6748 -35.6747 -35.6747
   -35.6746 -35.6745 -35.6614 -35.6605 -35.6601 -35.6600 -35.6598 -35.6597
   -35.6596 -35.6595 -35.6595 -35.6594 -35.6593 -35.6593 -35.6592 -35.6590
   -35.6590 -35.6589 -35.6587 -35.6587 -35.6581 -35.6576 -35.6575 -35.6574
   -35.6572 -35.6570 -35.6569 -35.6569 -35.6567 -35.6567 -35.6567 -35.6566
   -35.6564 -35.6564 -35.6563 -35.6562 -35.6560 -35.6560 -26.5648 -26.5643
   -26.5504 -26.5501 -26.5498 -26.5498 -26.5480 -26.5477 -26.5474 -26.5474
   -26.5168 -26.5165 -26.5163 -26.5163 -26.4973 -26.4972 -26.4969 -26.4969
   -26.4946 -26.4941 -26.4528 -26.4525 -26.4512 -26.4512 -26.4508 -26.4508
   -26.4481 -26.4478 -26.4414 -26.4413 -26.4410 -26.4409 -26.4382 -26.4379
   -26.4329 -26.4328 -26.4326 -26.4326 -26.4315 -26.4312 -26.4256 -26.4256
   -26.4253 -26.4253 -26.4235 -26.4234 -26.4234 -26.4230 -26.4182 -26.4182
   -26.4180 -26.4180 -26.4148 -26.4145  -2.6336  -2.4910  -1.9784  -1.8484
    -1.7049  -1.7035  -1.5847  -1.5831  -1.4535  -1.2813  -1.2799  -1.2154
    -1.1861  -1.1846  -1.1473  -1.1227  -1.0652  -0.9858  -0.9854  -0.9364
    -0.8246  -0.8241  -0.8058  -0.8044  -0.7790  -0.7785  -0.7677  -0.7663
    -0.7180  -0.6654  -0.6648  -0.6254  -0.5347  -0.5341  -0.4946  -0.4939
     5.7057   5.9189   6.0968   6.2319   6.2323   6.3895   6.4061   6.4066
     6.4725   6.4734   6.4741   6.5585   6.5593   6.6536   6.6543   6.8070
     6.8077   6.9129   6.9139   6.9992   6.9996   7.0282   7.1295   7.1957
     7.2335   7.2347   7.2784   7.2785   7.3188   7.3191   7.5203   7.5203
     7.5544   7.6173   7.6382   7.6387   7.6711   7.8036   7.8040   7.9687
     7.9700   7.9929   7.9939   8.0447   8.0668   8.0674   8.1853   8.1856
     8.2295   8.2301   8.2842   8.3964   8.3972   8.5930   8.7006   8.7017
     8.8248   8.8265   8.8567   8.8581   8.8992   8.9426   8.9436   8.9630
     8.9827   8.9832   9.0761   9.0992   9.1511   9.1531   9.1535   9.4610
     9.4783   9.4841   9.5398   9.7855   9.7861   9.8541   9.9518   9.9526
     9.9723   9.9732   9.9777   9.9783   9.9796   9.9806  10.0159  10.0188
    10.0193  10.0312  10.0853  10.0990  10.1155  10.1162  10.1484  10.2752
    10.2757  10.2827  10.2876  10.2885  10.3239  10.4990  10.5647  10.5734
    10.5735  10.6653  10.6945  10.7792  10.9404  10.9475  10.9836  10.9839
    11.0194  11.0200  11.0470  11.0475  11.0690  11.0986  11.0989  11.1359
    11.5653  11.5655  11.6894  11.6896  11.8218  12.1098

          k =-0.2500-0.4330 0.1957 ( 95526 PWs)   bands (ev):

   -62.2843 -62.2840 -62.2831 -62.2826 -62.2826 -62.2825 -62.2805 -62.2801
   -62.2800 -62.2800 -62.2797 -62.2793 -62.2790 -62.2790 -62.2790 -62.2786
   -62.2785 -62.2778 -35.7206 -35.7205 -35.7179 -35.7178 -35.7177 -35.7176
   -35.7176 -35.7176 -35.7175 -35.7174 -35.7174 -35.7173 -35.7172 -35.7172
   -35.7172 -35.7171 -35.7171 -35.7171 -35.7170 -35.7170 -35.7170 -35.7169
   -35.7169 -35.7169 -35.7169 -35.7169 -35.7168 -35.7168 -35.7168 -35.7167
   -35.7167 -35.7166 -35.7166 -35.7165 -35.7165 -35.7164 -35.7164 -35.7164
   -35.7164 -35.7163 -35.7162 -35.7161 -35.7161 -35.7161 -35.7160 -35.7160
   -35.7157 -35.7157 -35.7157 -35.7156 -35.7154 -35.7154 -35.7153 -35.7151
   -35.7150 -35.7150 -35.7150 -35.7150 -35.7148 -35.7148 -35.7148 -35.7148
   -35.7147 -35.7147 -35.7146 -35.7145 -35.7144 -35.7144 -35.7143 -35.7143
   -35.7141 -35.7140 -35.6794 -35.6791 -35.6775 -35.6775 -35.6773 -35.6772
   -35.6771 -35.6770 -35.6769 -35.6769 -35.6769 -35.6768 -35.6768 -35.6767
   -35.6767 -35.6766 -35.6766 -35.6766 -35.6766 -35.6765 -35.6765 -35.6765
   -35.6765 -35.6764 -35.6764 -35.6763 -35.6763 -35.6763 -35.6763 -35.6763
   -35.6762 -35.6761 -35.6761 -35.6761 -35.6761 -35.6760 -35.6760 -35.6759
   -35.6759 -35.6759 -35.6759 -35.6759 -35.6758 -35.6758 -35.6758 -35.6757
   -35.6757 -35.6757 -35.6757 -35.6756 -35.6756 -35.6755 -35.6755 -35.6755
   -35.6754 -35.6753 -35.6753 -35.6753 -35.6752 -35.6751 -35.6751 -35.6751
   -35.6750 -35.6750 -35.6749 -35.6749 -35.6749 -35.6749 -35.6748 -35.6747
   -35.6746 -35.6746 -35.6614 -35.6604 -35.6602 -35.6599 -35.6599 -35.6596
   -35.6596 -35.6596 -35.6596 -35.6595 -35.6593 -35.6592 -35.6591 -35.6590
   -35.6589 -35.6589 -35.6588 -35.6587 -35.6580 -35.6577 -35.6576 -35.6574
   -35.6571 -35.6571 -35.6570 -35.6569 -35.6568 -35.6567 -35.6566 -35.6564
   -35.6564 -35.6564 -35.6562 -35.6562 -35.6561 -35.6560 -26.5696 -26.5694
   -26.5691 -26.5691 -26.5624 -26.5619 -26.5456 -26.5451 -26.5354 -26.5352
   -26.5349 -26.5349 -26.4812 -26.4808 -26.4777 -26.4776 -26.4772 -26.4772
   -26.4759 -26.4755 -26.4597 -26.4595 -26.4592 -26.4592 -26.4569 -26.4567
   -26.4564 -26.4564 -26.4486 -26.4483 -26.4434 -26.4431 -26.4415 -26.4410
   -26.4410 -26.4410 -26.4301 -26.4299 -26.4296 -26.4296 -26.4270 -26.4265
   -26.4264 -26.4264 -26.4218 -26.4214 -26.4211 -26.4211 -26.4211 -26.4208
   -26.4203 -26.4199 -26.4193 -26.4192  -2.4565  -2.3161  -2.1287  -2.1273
    -1.9947  -1.9930  -1.3635  -1.3586  -1.3573  -1.2567  -1.2552  -1.1976
    -1.1970  -1.1383  -1.0234  -0.9990  -0.9978  -0.9974  -0.9966  -0.9502
    -0.9333  -0.9319  -0.8730  -0.8250  -0.8128  -0.8122  -0.6872  -0.6864
    -0.6449  -0.6435  -0.6431  -0.5754  -0.5746  -0.5744  -0.5619  -0.5258
     5.8483   5.8492   5.9321   6.0209   6.0218   6.0688   6.2224   6.3324
     6.3332   6.5105   6.5595   6.6043   6.6076   6.6083   6.7380   6.7388
     6.9144   6.9521   6.9661   6.9670   7.0181   7.0189   7.0662   7.0669
     7.0969   7.1996   7.3612   7.3622   7.4969   7.4974   7.6369   7.6381
     7.6967   7.7041   7.7053   7.7517   7.8643   7.8646   7.8672   7.8677
     7.8836   7.9167   7.9168   8.0434   8.0617   8.0630   8.4556   8.5351
     8.5357   8.5383   8.5390   8.5934   8.6191   8.6456   8.6692   8.7836
     8.7842   8.7847   8.8267   8.8278   8.8572   8.8867   8.8875   8.9081
     8.9128   8.9515   8.9518   9.0935   9.2841   9.3477   9.3491   9.4045
     9.4056   9.4787   9.4795   9.4924   9.4938   9.5970   9.6133   9.6316
     9.8148   9.8378   9.8383   9.8701   9.8707   9.8712   9.8718   9.8968
     9.9634   9.9742   9.9750  10.0300  10.0495  10.0966  10.0975  10.1718
    10.1725  10.1980  10.3239  10.3248  10.4058  10.4070  10.5148  10.5167
    10.5654  10.9153  10.9165  11.0292  11.1378  11.1384  11.1546  11.1558
    11.1605  11.1611  11.2878  11.2887  11.2910  11.2918  11.3030  11.3040
    11.3204  11.3811  11.3919  11.5464  11.6440  11.7842

          k =-0.2500 0.4330-0.1957 ( 95526 PWs)   bands (ev):

   -62.2843 -62.2840 -62.2832 -62.2826 -62.2826 -62.2825 -62.2805 -62.2800
   -62.2800 -62.2800 -62.2797 -62.2793 -62.2790 -62.2790 -62.2790 -62.2786
   -62.2786 -62.2778 -35.7206 -35.7206 -35.7179 -35.7178 -35.7177 -35.7176
   -35.7176 -35.7176 -35.7175 -35.7174 -35.7174 -35.7173 -35.7172 -35.7172
   -35.7172 -35.7171 -35.7171 -35.7171 -35.7170 -35.7170 -35.7170 -35.7169
   -35.7169 -35.7169 -35.7169 -35.7169 -35.7168 -35.7168 -35.7168 -35.7167
   -35.7167 -35.7166 -35.7166 -35.7165 -35.7165 -35.7164 -35.7164 -35.7164
   -35.7164 -35.7163 -35.7162 -35.7161 -35.7161 -35.7161 -35.7160 -35.7160
   -35.7157 -35.7157 -35.7157 -35.7156 -35.7155 -35.7154 -35.7153 -35.7151
   -35.7150 -35.7150 -35.7150 -35.7150 -35.7148 -35.7148 -35.7148 -35.7148
   -35.7147 -35.7147 -35.7146 -35.7145 -35.7144 -35.7144 -35.7143 -35.7143
   -35.7141 -35.7141 -35.6794 -35.6791 -35.6775 -35.6774 -35.6773 -35.6773
   -35.6771 -35.6770 -35.6769 -35.6769 -35.6769 -35.6768 -35.6768 -35.6767
   -35.6767 -35.6766 -35.6766 -35.6766 -35.6766 -35.6766 -35.6765 -35.6765
   -35.6765 -35.6764 -35.6764 -35.6763 -35.6763 -35.6763 -35.6763 -35.6762
   -35.6762 -35.6762 -35.6761 -35.6761 -35.6761 -35.6760 -35.6760 -35.6759
   -35.6759 -35.6759 -35.6759 -35.6759 -35.6758 -35.6758 -35.6758 -35.6757
   -35.6757 -35.6757 -35.6757 -35.6756 -35.6756 -35.6756 -35.6755 -35.6754
   -35.6754 -35.6753 -35.6753 -35.6753 -35.6752 -35.6751 -35.6751 -35.6751
   -35.6750 -35.6750 -35.6750 -35.6749 -35.6749 -35.6749 -35.6748 -35.6747
   -35.6746 -35.6746 -35.6614 -35.6604 -35.6603 -35.6599 -35.6599 -35.6597
   -35.6596 -35.6596 -35.6595 -35.6595 -35.6594 -35.6592 -35.6591 -35.6590
   -35.6589 -35.6588 -35.6588 -35.6587 -35.6580 -35.6577 -35.6576 -35.6574
   -35.6571 -35.6571 -35.6570 -35.6569 -35.6568 -35.6567 -35.6566 -35.6564
   -35.6564 -35.6564 -35.6562 -35.6562 -35.6561 -35.6560 -26.5697 -26.5695
   -26.5691 -26.5691 -26.5623 -26.5619 -26.5456 -26.5451 -26.5355 -26.5350
   -26.5349 -26.5349 -26.4812 -26.4808 -26.4778 -26.4775 -26.4772 -26.4772
   -26.4759 -26.4755 -26.4597 -26.4596 -26.4592 -26.4592 -26.4570 -26.4566
   -26.4564 -26.4564 -26.4486 -26.4483 -26.4435 -26.4431 -26.4415 -26.4410
   -26.4410 -26.4410 -26.4301 -26.4299 -26.4296 -26.4296 -26.4269 -26.4265
   -26.4265 -26.4264 -26.4218 -26.4213 -26.4211 -26.4211 -26.4211 -26.4209
   -26.4202 -26.4199 -26.4193 -26.4192  -2.4565  -2.3161  -2.1288  -2.1273
    -1.9947  -1.9930  -1.3636  -1.3588  -1.3573  -1.2568  -1.2552  -1.1976
    -1.1970  -1.1384  -1.0233  -0.9988  -0.9978  -0.9972  -0.9967  -0.9501
    -0.9331  -0.9319  -0.8731  -0.8251  -0.8126  -0.8122  -0.6869  -0.6864
    -0.6451  -0.6436  -0.6431  -0.5755  -0.5747  -0.5744  -0.5620  -0.5256
     5.8484   5.8489   5.9322   6.0209   6.0215   6.0690   6.2227   6.3325
     6.3332   6.5105   6.5594   6.6043   6.6078   6.6081   6.7382   6.7389
     6.9140   6.9520   6.9660   6.9670   7.0183   7.0189   7.0666   7.0669
     7.0972   7.1999   7.3613   7.3617   7.4970   7.4975   7.6375   7.6380
     7.6963   7.7037   7.7052   7.7520   7.8641   7.8646   7.8670   7.8677
     7.8833   7.9165   7.9170   8.0430   8.0622   8.0628   8.4554   8.5351
     8.5358   8.5379   8.5392   8.5937   8.6193   8.6455   8.6692   8.7835
     8.7838   8.7847   8.8273   8.8278   8.8569   8.8866   8.8876   8.9076
     8.9132   8.9506   8.9520   9.0933   9.2841   9.3478   9.3494   9.4048
     9.4055   9.4787   9.4798   9.4927   9.4935   9.5963   9.6131   9.6314
     9.8153   9.8379   9.8383   9.8700   9.8707   9.8713   9.8714   9.8977
     9.9644   9.9741   9.9749  10.0297  10.0498  10.0968  10.0972  10.1720
    10.1727  10.1983  10.3238  10.3255  10.4059  10.4065  10.5152  10.5165
    10.5651  10.9153  10.9162  11.0290  11.1380  11.1386  11.1545  11.1554
    11.1607  11.1613  11.2878  11.2889  11.2908  11.2917  11.3033  11.3039
    11.3203  11.3809  11.3920  11.5466  11.6441  11.7838

          k = 0.2500-0.4330-0.1957 ( 95526 PWs)   bands (ev):

   -62.2843 -62.2840 -62.2832 -62.2826 -62.2826 -62.2825 -62.2805 -62.2800
   -62.2800 -62.2800 -62.2797 -62.2793 -62.2790 -62.2790 -62.2790 -62.2786
   -62.2786 -62.2778 -35.7206 -35.7206 -35.7179 -35.7178 -35.7177 -35.7176
   -35.7176 -35.7176 -35.7175 -35.7174 -35.7174 -35.7173 -35.7172 -35.7172
   -35.7172 -35.7171 -35.7171 -35.7171 -35.7170 -35.7170 -35.7170 -35.7169
   -35.7169 -35.7169 -35.7169 -35.7169 -35.7168 -35.7168 -35.7168 -35.7167
   -35.7167 -35.7166 -35.7166 -35.7165 -35.7165 -35.7164 -35.7164 -35.7164
   -35.7164 -35.7163 -35.7162 -35.7161 -35.7161 -35.7161 -35.7160 -35.7160
   -35.7157 -35.7157 -35.7157 -35.7156 -35.7155 -35.7154 -35.7153 -35.7151
   -35.7150 -35.7150 -35.7150 -35.7150 -35.7148 -35.7148 -35.7148 -35.7148
   -35.7147 -35.7147 -35.7146 -35.7145 -35.7144 -35.7144 -35.7143 -35.7143
   -35.7141 -35.7141 -35.6794 -35.6791 -35.6775 -35.6774 -35.6773 -35.6773
   -35.6771 -35.6770 -35.6769 -35.6769 -35.6769 -35.6768 -35.6768 -35.6767
   -35.6767 -35.6766 -35.6766 -35.6766 -35.6766 -35.6765 -35.6765 -35.6765
   -35.6765 -35.6764 -35.6764 -35.6763 -35.6763 -35.6763 -35.6763 -35.6762
   -35.6762 -35.6762 -35.6761 -35.6761 -35.6761 -35.6761 -35.6760 -35.6759
   -35.6759 -35.6759 -35.6759 -35.6759 -35.6758 -35.6758 -35.6758 -35.6757
   -35.6757 -35.6757 -35.6757 -35.6756 -35.6756 -35.6756 -35.6755 -35.6754
   -35.6754 -35.6753 -35.6753 -35.6753 -35.6752 -35.6751 -35.6751 -35.6751
   -35.6750 -35.6750 -35.6750 -35.6749 -35.6749 -35.6749 -35.6748 -35.6747
   -35.6746 -35.6746 -35.6614 -35.6604 -35.6603 -35.6599 -35.6599 -35.6597
   -35.6596 -35.6596 -35.6595 -35.6595 -35.6594 -35.6592 -35.6591 -35.6590
   -35.6589 -35.6588 -35.6588 -35.6587 -35.6580 -35.6577 -35.6576 -35.6574
   -35.6571 -35.6571 -35.6570 -35.6569 -35.6568 -35.6567 -35.6566 -35.6564
   -35.6564 -35.6564 -35.6562 -35.6562 -35.6561 -35.6560 -26.5697 -26.5695
   -26.5691 -26.5691 -26.5623 -26.5619 -26.5456 -26.5451 -26.5355 -26.5350
   -26.5349 -26.5349 -26.4812 -26.4808 -26.4778 -26.4775 -26.4772 -26.4772
   -26.4759 -26.4755 -26.4597 -26.4596 -26.4592 -26.4592 -26.4570 -26.4566
   -26.4564 -26.4564 -26.4486 -26.4483 -26.4435 -26.4431 -26.4415 -26.4410
   -26.4410 -26.4410 -26.4301 -26.4299 -26.4296 -26.4296 -26.4269 -26.4265
   -26.4265 -26.4264 -26.4218 -26.4213 -26.4211 -26.4211 -26.4211 -26.4209
   -26.4202 -26.4199 -26.4193 -26.4192  -2.4565  -2.3161  -2.1287  -2.1273
    -1.9947  -1.9930  -1.3636  -1.3588  -1.3573  -1.2568  -1.2552  -1.1976
    -1.1970  -1.1384  -1.0233  -0.9988  -0.9978  -0.9973  -0.9967  -0.9501
    -0.9331  -0.9319  -0.8732  -0.8251  -0.8126  -0.8122  -0.6869  -0.6864
    -0.6451  -0.6436  -0.6431  -0.5755  -0.5747  -0.5744  -0.5620  -0.5256
     5.8484   5.8489   5.9322   6.0209   6.0215   6.0690   6.2227   6.3325
     6.3332   6.5104   6.5594   6.6043   6.6078   6.6081   6.7382   6.7388
     6.9141   6.9520   6.9661   6.9670   7.0183   7.0189   7.0664   7.0670
     7.0973   7.1999   7.3613   7.3618   7.4970   7.4973   7.6376   7.6380
     7.6962   7.7037   7.7052   7.7519   7.8640   7.8646   7.8670   7.8676
     7.8835   7.9165   7.9170   8.0431   8.0622   8.0627   8.4552   8.5349
     8.5358   8.5382   8.5391   8.5936   8.6193   8.6453   8.6692   8.7837
     8.7840   8.7846   8.8272   8.8278   8.8571   8.8864   8.8876   8.9077
     8.9131   8.9507   8.9521   9.0934   9.2840   9.3477   9.3494   9.4047
     9.4055   9.4788   9.4798   9.4928   9.4935   9.5962   9.6130   9.6314
     9.8154   9.8379   9.8383   9.8702   9.8708   9.8711   9.8714   9.8977
     9.9644   9.9740   9.9750  10.0299  10.0497  10.0967  10.0974  10.1718
    10.1726  10.1981  10.3237  10.3254  10.4060  10.4067  10.5151  10.5165
    10.5650  10.9153  10.9163  11.0292  11.1380  11.1385  11.1544  11.1554
    11.1607  11.1613  11.2879  11.2887  11.2909  11.2917  11.3032  11.3041
    11.3203  11.3809  11.3921  11.5465  11.6439  11.7838

          k = 0.5000-0.0000 0.1957 ( 95526 PWs)   bands (ev):

   -62.2843 -62.2840 -62.2831 -62.2826 -62.2826 -62.2825 -62.2805 -62.2801
   -62.2800 -62.2800 -62.2797 -62.2793 -62.2790 -62.2790 -62.2790 -62.2786
   -62.2785 -62.2778 -35.7206 -35.7205 -35.7179 -35.7179 -35.7177 -35.7176
   -35.7176 -35.7175 -35.7175 -35.7174 -35.7174 -35.7172 -35.7172 -35.7172
   -35.7172 -35.7171 -35.7171 -35.7171 -35.7170 -35.7170 -35.7169 -35.7169
   -35.7169 -35.7169 -35.7169 -35.7169 -35.7168 -35.7168 -35.7168 -35.7167
   -35.7167 -35.7167 -35.7166 -35.7165 -35.7165 -35.7165 -35.7164 -35.7164
   -35.7164 -35.7163 -35.7162 -35.7162 -35.7161 -35.7161 -35.7160 -35.7160
   -35.7157 -35.7157 -35.7156 -35.7156 -35.7155 -35.7154 -35.7153 -35.7151
   -35.7150 -35.7150 -35.7150 -35.7150 -35.7148 -35.7148 -35.7148 -35.7147
   -35.7147 -35.7147 -35.7146 -35.7145 -35.7145 -35.7144 -35.7143 -35.7143
   -35.7141 -35.7141 -35.6794 -35.6791 -35.6775 -35.6775 -35.6772 -35.6772
   -35.6772 -35.6770 -35.6769 -35.6769 -35.6769 -35.6768 -35.6768 -35.6768
   -35.6767 -35.6766 -35.6766 -35.6766 -35.6766 -35.6766 -35.6765 -35.6765
   -35.6765 -35.6764 -35.6764 -35.6763 -35.6763 -35.6763 -35.6763 -35.6763
   -35.6762 -35.6762 -35.6761 -35.6761 -35.6761 -35.6760 -35.6760 -35.6759
   -35.6759 -35.6759 -35.6759 -35.6759 -35.6758 -35.6758 -35.6758 -35.6757
   -35.6757 -35.6757 -35.6757 -35.6756 -35.6756 -35.6755 -35.6755 -35.6754
   -35.6754 -35.6753 -35.6753 -35.6753 -35.6752 -35.6752 -35.6751 -35.6751
   -35.6750 -35.6750 -35.6750 -35.6749 -35.6749 -35.6749 -35.6748 -35.6747
   -35.6746 -35.6746 -35.6614 -35.6604 -35.6602 -35.6599 -35.6599 -35.6597
   -35.6596 -35.6596 -35.6596 -35.6594 -35.6594 -35.6592 -35.6591 -35.6590
   -35.6589 -35.6588 -35.6588 -35.6587 -35.6580 -35.6577 -35.6576 -35.6574
   -35.6571 -35.6571 -35.6570 -35.6570 -35.6568 -35.6567 -35.6566 -35.6564
   -35.6564 -35.6564 -35.6562 -35.6562 -35.6561 -35.6560 -26.5696 -26.5695
   -26.5691 -26.5691 -26.5623 -26.5619 -26.5456 -26.5451 -26.5355 -26.5351
   -26.5349 -26.5349 -26.4812 -26.4808 -26.4778 -26.4775 -26.4772 -26.4772
   -26.4759 -26.4755 -26.4597 -26.4595 -26.4592 -26.4592 -26.4570 -26.4566
   -26.4564 -26.4564 -26.4486 -26.4483 -26.4435 -26.4431 -26.4415 -26.4410
   -26.4410 -26.4410 -26.4301 -26.4299 -26.4296 -26.4296 -26.4269 -26.4265
   -26.4265 -26.4264 -26.4218 -26.4214 -26.4211 -26.4211 -26.4211 -26.4209
   -26.4202 -26.4199 -26.4193 -26.4192  -2.4565  -2.3161  -2.1286  -2.1274
    -1.9946  -1.9931  -1.3635  -1.3586  -1.3574  -1.2567  -1.2553  -1.1974
    -1.1973  -1.1383  -1.0233  -0.9990  -0.9978  -0.9972  -0.9966  -0.9502
    -0.9332  -0.9319  -0.8730  -0.8251  -0.8126  -0.8122  -0.6870  -0.6864
    -0.6450  -0.6435  -0.6431  -0.5754  -0.5747  -0.5744  -0.5619  -0.5257
     5.8483   5.8491   5.9321   6.0209   6.0217   6.0689   6.2226   6.3327
     6.3331   6.5105   6.5594   6.6044   6.6077   6.6082   6.7382   6.7388
     6.9142   6.9521   6.9660   6.9670   7.0181   7.0190   7.0664   7.0669
     7.0970   7.1998   7.3613   7.3618   7.4970   7.4976   7.6372   7.6380
     7.6966   7.7040   7.7051   7.7519   7.8643   7.8645   7.8671   7.8677
     7.8833   7.9166   7.9170   8.0430   8.0619   8.0630   8.4556   8.5351
     8.5359   8.5380   8.5390   8.5936   8.6192   8.6458   8.6692   8.7833
     8.7839   8.7847   8.8271   8.8279   8.8569   8.8868   8.8875   8.9078
     8.9131   8.9510   8.9518   9.0933   9.2842   9.3480   9.3491   9.4048
     9.4056   9.4788   9.4795   9.4925   9.4936   9.5967   9.6132   9.6315
     9.8150   9.8379   9.8384   9.8698   9.8709   9.8713   9.8715   9.8973
     9.9639   9.9742   9.9750  10.0297  10.0497  10.0967  10.0972  10.1720
    10.1726  10.1983  10.3239  10.3253  10.4058  10.4066  10.5151  10.5166
    10.5653  10.9153  10.9163  11.0290  11.1379  11.1386  11.1546  11.1555
    11.1606  11.1612  11.2877  11.2888  11.2909  11.2919  11.3032  11.3038
    11.3204  11.3809  11.3919  11.5465  11.6443  11.7839

          k =-0.5000 0.0000 0.1957 ( 95526 PWs)   bands (ev):

   -62.2843 -62.2840 -62.2831 -62.2826 -62.2826 -62.2825 -62.2805 -62.2801
   -62.2800 -62.2800 -62.2797 -62.2793 -62.2790 -62.2790 -62.2790 -62.2786
   -62.2785 -62.2778 -35.7206 -35.7205 -35.7179 -35.7179 -35.7177 -35.7176
   -35.7176 -35.7175 -35.7175 -35.7174 -35.7174 -35.7172 -35.7172 -35.7172
   -35.7172 -35.7171 -35.7171 -35.7171 -35.7170 -35.7170 -35.7169 -35.7169
   -35.7169 -35.7169 -35.7169 -35.7169 -35.7168 -35.7168 -35.7168 -35.7167
   -35.7167 -35.7167 -35.7166 -35.7165 -35.7165 -35.7165 -35.7164 -35.7164
   -35.7164 -35.7163 -35.7162 -35.7162 -35.7161 -35.7161 -35.7160 -35.7160
   -35.7157 -35.7157 -35.7156 -35.7156 -35.7155 -35.7154 -35.7153 -35.7151
   -35.7150 -35.7150 -35.7150 -35.7150 -35.7148 -35.7148 -35.7148 -35.7147
   -35.7147 -35.7147 -35.7146 -35.7145 -35.7145 -35.7144 -35.7143 -35.7143
   -35.7141 -35.7141 -35.6794 -35.6791 -35.6775 -35.6775 -35.6772 -35.6772
   -35.6772 -35.6770 -35.6769 -35.6769 -35.6769 -35.6768 -35.6768 -35.6768
   -35.6767 -35.6766 -35.6766 -35.6766 -35.6766 -35.6765 -35.6765 -35.6765
   -35.6765 -35.6764 -35.6764 -35.6763 -35.6763 -35.6763 -35.6763 -35.6762
   -35.6762 -35.6762 -35.6761 -35.6761 -35.6761 -35.6760 -35.6760 -35.6759
   -35.6759 -35.6759 -35.6759 -35.6759 -35.6758 -35.6758 -35.6758 -35.6757
   -35.6757 -35.6757 -35.6757 -35.6756 -35.6756 -35.6755 -35.6755 -35.6754
   -35.6754 -35.6753 -35.6753 -35.6753 -35.6752 -35.6752 -35.6751 -35.6751
   -35.6750 -35.6750 -35.6750 -35.6749 -35.6749 -35.6749 -35.6748 -35.6747
   -35.6746 -35.6746 -35.6614 -35.6604 -35.6602 -35.6599 -35.6599 -35.6597
   -35.6596 -35.6596 -35.6596 -35.6594 -35.6594 -35.6592 -35.6591 -35.6590
   -35.6589 -35.6588 -35.6588 -35.6587 -35.6580 -35.6577 -35.6576 -35.6574
   -35.6571 -35.6571 -35.6570 -35.6570 -35.6568 -35.6567 -35.6566 -35.6564
   -35.6564 -35.6564 -35.6562 -35.6562 -35.6561 -35.6560 -26.5696 -26.5695
   -26.5691 -26.5691 -26.5623 -26.5619 -26.5456 -26.5451 -26.5355 -26.5351
   -26.5349 -26.5349 -26.4812 -26.4808 -26.4778 -26.4775 -26.4772 -26.4772
   -26.4759 -26.4755 -26.4597 -26.4595 -26.4592 -26.4592 -26.4570 -26.4566
   -26.4564 -26.4564 -26.4486 -26.4483 -26.4435 -26.4431 -26.4415 -26.4410
   -26.4410 -26.4410 -26.4301 -26.4299 -26.4296 -26.4296 -26.4269 -26.4265
   -26.4265 -26.4264 -26.4218 -26.4214 -26.4211 -26.4211 -26.4211 -26.4209
   -26.4202 -26.4199 -26.4193 -26.4192  -2.4565  -2.3161  -2.1286  -2.1274
    -1.9946  -1.9931  -1.3635  -1.3586  -1.3574  -1.2567  -1.2553  -1.1974
    -1.1973  -1.1383  -1.0234  -0.9988  -0.9978  -0.9973  -0.9966  -0.9502
    -0.9332  -0.9319  -0.8731  -0.8251  -0.8126  -0.8122  -0.6870  -0.6864
    -0.6451  -0.6435  -0.6431  -0.5755  -0.5746  -0.5744  -0.5619  -0.5257
     5.8483   5.8491   5.9322   6.0209   6.0217   6.0689   6.2226   6.3326
     6.3331   6.5104   6.5595   6.6043   6.6077   6.6082   6.7382   6.7388
     6.9142   6.9520   6.9662   6.9670   7.0182   7.0189   7.0663   7.0670
     7.0971   7.1997   7.3613   7.3620   7.4970   7.4972   7.6372   7.6382
     7.6964   7.7041   7.7052   7.7518   7.8641   7.8646   7.8672   7.8676
     7.8836   7.9166   7.9168   8.0433   8.0619   8.0628   8.4553   8.5350
     8.5357   8.5384   8.5390   8.5935   8.6193   8.6453   8.6691   8.7836
     8.7842   8.7847   8.8269   8.8279   8.8572   8.8866   8.8875   8.9080
     8.9129   8.9512   8.9518   9.0935   9.2840   9.3478   9.3491   9.4046
     9.4055   9.4790   9.4794   9.4927   9.4937   9.5966   9.6131   9.6315
     9.8151   9.8378   9.8383   9.8700   9.8709   9.8713   9.8715   9.8972
     9.9639   9.9740   9.9750  10.0300  10.0496  10.0967  10.0975  10.1718
    10.1725  10.1980  10.3238  10.3250  10.4059  10.4069  10.5150  10.5165
    10.5652  10.9153  10.9164  11.0293  11.1378  11.1385  11.1545  11.1556
    11.1606  11.1612  11.2879  11.2885  11.2910  11.2917  11.3031  11.3041
    11.3203  11.3810  11.3920  11.5465  11.6439  11.7840

          k =-0.2500 0.1443 0.1957 ( 95551 PWs)   bands (ev):

   -62.2850 -62.2847 -62.2824 -62.2821 -62.2815 -62.2811 -62.2811 -62.2811
   -62.2801 -62.2800 -62.2798 -62.2798 -62.2794 -62.2794 -62.2784 -62.2784
   -62.2784 -62.2777 -35.7206 -35.7206 -35.7180 -35.7179 -35.7177 -35.7177
   -35.7177 -35.7176 -35.7175 -35.7175 -35.7175 -35.7173 -35.7173 -35.7173
   -35.7172 -35.7172 -35.7171 -35.7171 -35.7171 -35.7171 -35.7171 -35.7170
   -35.7170 -35.7170 -35.7169 -35.7169 -35.7168 -35.7167 -35.7167 -35.7167
   -35.7166 -35.7166 -35.7165 -35.7165 -35.7165 -35.7164 -35.7163 -35.7163
   -35.7163 -35.7161 -35.7160 -35.7158 -35.7158 -35.7157 -35.7157 -35.7156
   -35.7156 -35.7154 -35.7154 -35.7153 -35.7153 -35.7153 -35.7153 -35.7152
   -35.7152 -35.7150 -35.7150 -35.7150 -35.7150 -35.7149 -35.7148 -35.7148
   -35.7148 -35.7147 -35.7147 -35.7147 -35.7147 -35.7145 -35.7144 -35.7144
   -35.7144 -35.7141 -35.6794 -35.6791 -35.6776 -35.6776 -35.6772 -35.6771
   -35.6770 -35.6770 -35.6770 -35.6770 -35.6769 -35.6768 -35.6768 -35.6767
   -35.6767 -35.6767 -35.6766 -35.6765 -35.6765 -35.6765 -35.6765 -35.6764
   -35.6764 -35.6764 -35.6763 -35.6763 -35.6763 -35.6763 -35.6763 -35.6762
   -35.6762 -35.6762 -35.6761 -35.6761 -35.6761 -35.6761 -35.6761 -35.6760
   -35.6760 -35.6759 -35.6759 -35.6759 -35.6759 -35.6758 -35.6758 -35.6758
   -35.6758 -35.6757 -35.6757 -35.6757 -35.6757 -35.6755 -35.6755 -35.6755
   -35.6754 -35.6754 -35.6753 -35.6753 -35.6752 -35.6752 -35.6752 -35.6751
   -35.6750 -35.6750 -35.6749 -35.6749 -35.6748 -35.6748 -35.6747 -35.6747
   -35.6746 -35.6745 -35.6614 -35.6605 -35.6601 -35.6600 -35.6598 -35.6597
   -35.6596 -35.6595 -35.6595 -35.6594 -35.6593 -35.6593 -35.6592 -35.6590
   -35.6590 -35.6589 -35.6587 -35.6587 -35.6581 -35.6576 -35.6575 -35.6574
   -35.6572 -35.6570 -35.6569 -35.6569 -35.6567 -35.6567 -35.6567 -35.6566
   -35.6564 -35.6564 -35.6563 -35.6562 -35.6560 -35.6560 -26.5648 -26.5643
   -26.5504 -26.5501 -26.5498 -26.5498 -26.5480 -26.5477 -26.5474 -26.5474
   -26.5168 -26.5165 -26.5163 -26.5163 -26.4973 -26.4972 -26.4969 -26.4969
   -26.4946 -26.4941 -26.4528 -26.4525 -26.4512 -26.4512 -26.4508 -26.4508
   -26.4481 -26.4478 -26.4414 -26.4413 -26.4410 -26.4409 -26.4382 -26.4379
   -26.4329 -26.4328 -26.4326 -26.4326 -26.4315 -26.4312 -26.4256 -26.4256
   -26.4253 -26.4253 -26.4235 -26.4234 -26.4234 -26.4230 -26.4182 -26.4182
   -26.4180 -26.4180 -26.4148 -26.4145  -2.6336  -2.4910  -1.9784  -1.8484
    -1.7049  -1.7035  -1.5847  -1.5831  -1.4535  -1.2813  -1.2799  -1.2154
    -1.1861  -1.1846  -1.1472  -1.1227  -1.0652  -0.9858  -0.9854  -0.9364
    -0.8246  -0.8241  -0.8058  -0.8044  -0.7790  -0.7785  -0.7676  -0.7663
    -0.7180  -0.6654  -0.6648  -0.6254  -0.5347  -0.5341  -0.4945  -0.4939
     5.7057   5.9189   6.0967   6.2318   6.2323   6.3895   6.4061   6.4067
     6.4723   6.4735   6.4742   6.5583   6.5592   6.6537   6.6544   6.8069
     6.8079   6.9131   6.9137   6.9990   6.9994   7.0286   7.1295   7.1958
     7.2334   7.2345   7.2784   7.2790   7.3184   7.3189   7.5205   7.5208
     7.5546   7.6172   7.6383   7.6386   7.6706   7.8032   7.8038   7.9695
     7.9700   7.9925   7.9940   8.0447   8.0668   8.0670   8.1854   8.1857
     8.2294   8.2304   8.2842   8.3960   8.3970   8.5930   8.7007   8.7016
     8.8255   8.8265   8.8568   8.8582   8.8992   8.9422   8.9436   8.9630
     8.9824   8.9831   9.0759   9.0993   9.1518   9.1530   9.1533   9.4610
     9.4783   9.4841   9.5398   9.7855   9.7865   9.8543   9.9513   9.9521
     9.9716   9.9732   9.9775   9.9778   9.9808   9.9817  10.0161  10.0191
    10.0193  10.0311  10.0853  10.0988  10.1153  10.1156  10.1484  10.2751
    10.2759  10.2827  10.2874  10.2877  10.3239  10.4989  10.5647  10.5738
    10.5744  10.6651  10.6945  10.7792  10.9408  10.9475  10.9831  10.9837
    11.0195  11.0201  11.0472  11.0475  11.0695  11.0985  11.0988  11.1356
    11.5653  11.5655  11.6894  11.6897  11.8215  12.1099

          k =-0.2500-0.1443-0.1957 ( 95551 PWs)   bands (ev):

   -62.2850 -62.2847 -62.2824 -62.2821 -62.2814 -62.2813 -62.2811 -62.2811
   -62.2802 -62.2799 -62.2798 -62.2798 -62.2794 -62.2794 -62.2784 -62.2784
   -62.2784 -62.2777 -35.7206 -35.7206 -35.7180 -35.7179 -35.7178 -35.7177
   -35.7177 -35.7176 -35.7176 -35.7174 -35.7174 -35.7173 -35.7173 -35.7173
   -35.7172 -35.7172 -35.7171 -35.7171 -35.7171 -35.7171 -35.7171 -35.7171
   -35.7170 -35.7170 -35.7169 -35.7169 -35.7168 -35.7168 -35.7167 -35.7167
   -35.7166 -35.7166 -35.7165 -35.7165 -35.7165 -35.7164 -35.7163 -35.7163
   -35.7163 -35.7161 -35.7160 -35.7158 -35.7158 -35.7158 -35.7157 -35.7156
   -35.7156 -35.7154 -35.7154 -35.7153 -35.7153 -35.7153 -35.7153 -35.7152
   -35.7152 -35.7151 -35.7150 -35.7150 -35.7150 -35.7149 -35.7148 -35.7148
   -35.7148 -35.7147 -35.7147 -35.7147 -35.7147 -35.7145 -35.7144 -35.7144
   -35.7144 -35.7141 -35.6794 -35.6791 -35.6776 -35.6776 -35.6771 -35.6771
   -35.6770 -35.6770 -35.6770 -35.6770 -35.6769 -35.6768 -35.6768 -35.6767
   -35.6767 -35.6766 -35.6766 -35.6765 -35.6765 -35.6765 -35.6765 -35.6764
   -35.6764 -35.6764 -35.6763 -35.6763 -35.6763 -35.6763 -35.6763 -35.6762
   -35.6762 -35.6762 -35.6762 -35.6761 -35.6761 -35.6761 -35.6761 -35.6760
   -35.6760 -35.6759 -35.6759 -35.6759 -35.6759 -35.6759 -35.6758 -35.6758
   -35.6758 -35.6758 -35.6757 -35.6757 -35.6757 -35.6755 -35.6755 -35.6754
   -35.6754 -35.6754 -35.6754 -35.6753 -35.6752 -35.6752 -35.6752 -35.6751
   -35.6750 -35.6750 -35.6749 -35.6749 -35.6748 -35.6748 -35.6748 -35.6747
   -35.6746 -35.6745 -35.6614 -35.6605 -35.6601 -35.6600 -35.6599 -35.6598
   -35.6595 -35.6595 -35.6595 -35.6594 -35.6593 -35.6593 -35.6592 -35.6590
   -35.6590 -35.6589 -35.6587 -35.6587 -35.6581 -35.6576 -35.6575 -35.6574
   -35.6572 -35.6570 -35.6569 -35.6568 -35.6568 -35.6567 -35.6566 -35.6566
   -35.6564 -35.6564 -35.6563 -35.6562 -35.6560 -35.6560 -26.5647 -26.5643
   -26.5504 -26.5502 -26.5498 -26.5498 -26.5480 -26.5477 -26.5474 -26.5474
   -26.5168 -26.5166 -26.5163 -26.5163 -26.4974 -26.4972 -26.4969 -26.4969
   -26.4945 -26.4941 -26.4528 -26.4525 -26.4513 -26.4510 -26.4508 -26.4508
   -26.4482 -26.4478 -26.4415 -26.4411 -26.4410 -26.4409 -26.4382 -26.4379
   -26.4329 -26.4328 -26.4326 -26.4326 -26.4316 -26.4312 -26.4256 -26.4255
   -26.4253 -26.4253 -26.4236 -26.4234 -26.4233 -26.4230 -26.4182 -26.4182
   -26.4180 -26.4180 -26.4149 -26.4145  -2.6337  -2.4910  -1.9785  -1.8484
    -1.7047  -1.7035  -1.5846  -1.5831  -1.4535  -1.2811  -1.2799  -1.2154
    -1.1860  -1.1846  -1.1475  -1.1227  -1.0654  -0.9859  -0.9854  -0.9363
    -0.8249  -0.8241  -0.8057  -0.8044  -0.7791  -0.7785  -0.7676  -0.7663
    -0.7179  -0.6655  -0.6648  -0.6252  -0.5347  -0.5341  -0.4946  -0.4939
     5.7057   5.9191   6.0970   6.2318   6.2321   6.3895   6.4061   6.4065
     6.4724   6.4733   6.4742   6.5584   6.5592   6.6539   6.6545   6.8071
     6.8076   6.9130   6.9138   6.9991   6.9993   7.0283   7.1294   7.1955
     7.2333   7.2346   7.2786   7.2790   7.3183   7.3187   7.5206   7.5209
     7.5546   7.6167   7.6383   7.6388   7.6707   7.8037   7.8040   7.9694
     7.9700   7.9929   7.9940   8.0444   8.0667   8.0674   8.1855   8.1859
     8.2293   8.2303   8.2847   8.3959   8.3969   8.5932   8.7013   8.7018
     8.8262   8.8266   8.8567   8.8579   8.8986   8.9431   8.9437   8.9625
     8.9825   8.9831   9.0759   9.0990   9.1520   9.1526   9.1532   9.4613
     9.4785   9.4834   9.5391   9.7855   9.7859   9.8545   9.9514   9.9523
     9.9718   9.9732   9.9774   9.9783   9.9799   9.9805  10.0174  10.0186
    10.0195  10.0313  10.0854  10.0996  10.1151  10.1155  10.1486  10.2748
    10.2756  10.2815  10.2873  10.2889  10.3229  10.4998  10.5646  10.5737
    10.5741  10.6650  10.6944  10.7797  10.9406  10.9480  10.9828  10.9832
    11.0195  11.0205  11.0466  11.0471  11.0700  11.0982  11.0991  11.1360
    11.5652  11.5655  11.6893  11.6897  11.8219  12.1099

          k = 0.2500 0.1443-0.1957 ( 95551 PWs)   bands (ev):

   -62.2850 -62.2847 -62.2824 -62.2821 -62.2814 -62.2813 -62.2811 -62.2811
   -62.2802 -62.2799 -62.2798 -62.2798 -62.2794 -62.2794 -62.2784 -62.2784
   -62.2784 -62.2777 -35.7206 -35.7206 -35.7180 -35.7179 -35.7178 -35.7177
   -35.7177 -35.7176 -35.7176 -35.7174 -35.7174 -35.7173 -35.7173 -35.7173
   -35.7172 -35.7172 -35.7171 -35.7171 -35.7171 -35.7171 -35.7171 -35.7171
   -35.7170 -35.7170 -35.7169 -35.7169 -35.7168 -35.7168 -35.7167 -35.7167
   -35.7166 -35.7166 -35.7165 -35.7165 -35.7165 -35.7164 -35.7163 -35.7163
   -35.7163 -35.7161 -35.7160 -35.7158 -35.7158 -35.7158 -35.7157 -35.7156
   -35.7156 -35.7154 -35.7154 -35.7153 -35.7153 -35.7153 -35.7153 -35.7152
   -35.7152 -35.7151 -35.7150 -35.7150 -35.7150 -35.7149 -35.7148 -35.7148
   -35.7148 -35.7147 -35.7147 -35.7147 -35.7147 -35.7145 -35.7144 -35.7144
   -35.7144 -35.7141 -35.6794 -35.6791 -35.6776 -35.6776 -35.6771 -35.6771
   -35.6770 -35.6770 -35.6770 -35.6770 -35.6769 -35.6768 -35.6768 -35.6767
   -35.6767 -35.6766 -35.6766 -35.6765 -35.6765 -35.6765 -35.6765 -35.6764
   -35.6764 -35.6764 -35.6763 -35.6763 -35.6763 -35.6763 -35.6763 -35.6762
   -35.6762 -35.6762 -35.6762 -35.6761 -35.6761 -35.6761 -35.6761 -35.6760
   -35.6760 -35.6759 -35.6759 -35.6759 -35.6759 -35.6759 -35.6758 -35.6758
   -35.6758 -35.6757 -35.6757 -35.6757 -35.6757 -35.6755 -35.6755 -35.6754
   -35.6754 -35.6754 -35.6754 -35.6753 -35.6752 -35.6752 -35.6752 -35.6751
   -35.6750 -35.6750 -35.6749 -35.6749 -35.6748 -35.6748 -35.6748 -35.6747
   -35.6746 -35.6745 -35.6614 -35.6605 -35.6600 -35.6600 -35.6599 -35.6598
   -35.6595 -35.6595 -35.6595 -35.6594 -35.6593 -35.6593 -35.6592 -35.6590
   -35.6590 -35.6589 -35.6587 -35.6587 -35.6581 -35.6576 -35.6575 -35.6574
   -35.6572 -35.6570 -35.6569 -35.6568 -35.6568 -35.6567 -35.6566 -35.6566
   -35.6564 -35.6564 -35.6563 -35.6562 -35.6560 -35.6560 -26.5647 -26.5643
   -26.5504 -26.5502 -26.5498 -26.5498 -26.5480 -26.5477 -26.5474 -26.5474
   -26.5168 -26.5166 -26.5163 -26.5163 -26.4974 -26.4972 -26.4969 -26.4969
   -26.4945 -26.4941 -26.4528 -26.4525 -26.4513 -26.4510 -26.4508 -26.4508
   -26.4482 -26.4478 -26.4415 -26.4411 -26.4410 -26.4409 -26.4382 -26.4379
   -26.4329 -26.4328 -26.4326 -26.4326 -26.4316 -26.4312 -26.4256 -26.4255
   -26.4253 -26.4253 -26.4236 -26.4234 -26.4233 -26.4230 -26.4182 -26.4182
   -26.4180 -26.4180 -26.4149 -26.4145  -2.6337  -2.4910  -1.9785  -1.8484
    -1.7047  -1.7035  -1.5846  -1.5831  -1.4535  -1.2811  -1.2799  -1.2154
    -1.1860  -1.1846  -1.1475  -1.1227  -1.0654  -0.9859  -0.9854  -0.9363
    -0.8249  -0.8241  -0.8057  -0.8044  -0.7791  -0.7785  -0.7676  -0.7663
    -0.7178  -0.6655  -0.6648  -0.6252  -0.5347  -0.5341  -0.4945  -0.4939
     5.7057   5.9191   6.0970   6.2319   6.2322   6.3895   6.4061   6.4063
     6.4724   6.4733   6.4741   6.5582   6.5593   6.6536   6.6544   6.8069
     6.8079   6.9131   6.9136   6.9994   6.9996   7.0283   7.1295   7.1955
     7.2336   7.2349   7.2782   7.2786   7.3187   7.3192   7.5199   7.5205
     7.5545   7.6167   7.6382   7.6388   7.6709   7.8036   7.8041   7.9694
     7.9700   7.9933   7.9935   8.0444   8.0669   8.0673   8.1854   8.1861
     8.2293   8.2302   8.2844   8.3965   8.3972   8.5934   8.7004   8.7013
     8.8260   8.8266   8.8571   8.8582   8.8986   8.9432   8.9437   8.9625
     8.9827   8.9832   9.0756   9.0991   9.1519   9.1526   9.1535   9.4613
     9.4785   9.4834   9.5392   9.7854   9.7864   9.8550   9.9511   9.9522
     9.9721   9.9732   9.9774   9.9780   9.9801   9.9805  10.0172  10.0188
    10.0193  10.0312  10.0855  10.0990  10.1147  10.1156  10.1482  10.2751
    10.2755  10.2814  10.2876  10.2885  10.3229  10.4998  10.5646  10.5734
    10.5744  10.6656  10.6944  10.7798  10.9409  10.9479  10.9830  10.9832
    11.0193  11.0203  11.0466  11.0471  11.0695  11.0984  11.0992  11.1363
    11.5653  11.5655  11.6892  11.6897  11.8216  12.1100

          k = 0.0000-0.2887 0.1957 ( 95551 PWs)   bands (ev):

   -62.2850 -62.2847 -62.2824 -62.2821 -62.2815 -62.2812 -62.2811 -62.2811
   -62.2802 -62.2800 -62.2798 -62.2798 -62.2794 -62.2794 -62.2784 -62.2784
   -62.2784 -62.2777 -35.7206 -35.7206 -35.7179 -35.7179 -35.7179 -35.7177
   -35.7177 -35.7176 -35.7176 -35.7174 -35.7174 -35.7174 -35.7173 -35.7173
   -35.7172 -35.7172 -35.7171 -35.7171 -35.7171 -35.7171 -35.7171 -35.7170
   -35.7170 -35.7170 -35.7169 -35.7169 -35.7168 -35.7167 -35.7167 -35.7167
   -35.7166 -35.7166 -35.7165 -35.7165 -35.7165 -35.7163 -35.7163 -35.7163
   -35.7163 -35.7161 -35.7159 -35.7158 -35.7158 -35.7157 -35.7157 -35.7156
   -35.7156 -35.7154 -35.7154 -35.7154 -35.7153 -35.7153 -35.7153 -35.7153
   -35.7152 -35.7151 -35.7151 -35.7150 -35.7150 -35.7148 -35.7148 -35.7148
   -35.7148 -35.7147 -35.7147 -35.7147 -35.7147 -35.7145 -35.7144 -35.7144
   -35.7144 -35.7141 -35.6794 -35.6791 -35.6776 -35.6776 -35.6772 -35.6771
   -35.6770 -35.6770 -35.6770 -35.6769 -35.6769 -35.6768 -35.6768 -35.6767
   -35.6767 -35.6766 -35.6766 -35.6765 -35.6765 -35.6765 -35.6765 -35.6764
   -35.6764 -35.6764 -35.6763 -35.6763 -35.6763 -35.6763 -35.6762 -35.6762
   -35.6762 -35.6762 -35.6762 -35.6761 -35.6761 -35.6761 -35.6761 -35.6760
   -35.6760 -35.6759 -35.6759 -35.6759 -35.6759 -35.6759 -35.6758 -35.6758
   -35.6758 -35.6757 -35.6757 -35.6757 -35.6757 -35.6755 -35.6755 -35.6755
   -35.6754 -35.6754 -35.6753 -35.6753 -35.6752 -35.6752 -35.6752 -35.6751
   -35.6750 -35.6750 -35.6749 -35.6749 -35.6748 -35.6748 -35.6747 -35.6747
   -35.6746 -35.6745 -35.6614 -35.6605 -35.6601 -35.6600 -35.6598 -35.6597
   -35.6596 -35.6595 -35.6595 -35.6594 -35.6593 -35.6593 -35.6592 -35.6590
   -35.6590 -35.6589 -35.6587 -35.6587 -35.6581 -35.6576 -35.6575 -35.6574
   -35.6572 -35.6569 -35.6569 -35.6569 -35.6567 -35.6567 -35.6566 -35.6566
   -35.6564 -35.6564 -35.6563 -35.6562 -35.6560 -35.6560 -26.5647 -26.5643
   -26.5504 -26.5501 -26.5498 -26.5498 -26.5480 -26.5477 -26.5474 -26.5474
   -26.5169 -26.5165 -26.5163 -26.5163 -26.4974 -26.4972 -26.4969 -26.4969
   -26.4945 -26.4941 -26.4527 -26.4525 -26.4513 -26.4511 -26.4508 -26.4508
   -26.4482 -26.4478 -26.4415 -26.4412 -26.4410 -26.4409 -26.4382 -26.4379
   -26.4329 -26.4328 -26.4326 -26.4326 -26.4316 -26.4312 -26.4256 -26.4255
   -26.4253 -26.4253 -26.4235 -26.4234 -26.4234 -26.4230 -26.4182 -26.4182
   -26.4180 -26.4180 -26.4149 -26.4145  -2.6336  -2.4910  -1.9784  -1.8484
    -1.7050  -1.7034  -1.5847  -1.5830  -1.4535  -1.2813  -1.2798  -1.2154
    -1.1861  -1.1845  -1.1474  -1.1227  -1.0653  -0.9860  -0.9853  -0.9363
    -0.8248  -0.8240  -0.8058  -0.8044  -0.7791  -0.7785  -0.7676  -0.7663
    -0.7179  -0.6655  -0.6648  -0.6253  -0.5347  -0.5341  -0.4945  -0.4939
     5.7057   5.9190   6.0968   6.2318   6.2322   6.3895   6.4060   6.4067
     6.4723   6.4732   6.4744   6.5581   6.5594   6.6537   6.6546   6.8070
     6.8078   6.9130   6.9138   6.9991   6.9993   7.0284   7.1295   7.1957
     7.2334   7.2346   7.2784   7.2792   7.3184   7.3188   7.5203   7.5210
     7.5546   7.6169   7.6382   7.6388   7.6706   7.8034   7.8039   7.9693
     7.9701   7.9927   7.9940   8.0445   8.0668   8.0672   8.1853   8.1860
     8.2290   8.2307   8.2844   8.3955   8.3973   8.5931   8.7012   8.7015
     8.8258   8.8266   8.8564   8.8584   8.8989   8.9425   8.9438   8.9627
     8.9824   8.9832   9.0759   9.0992   9.1519   9.1528   9.1534   9.4611
     9.4784   9.4837   9.5395   9.7854   9.7863   9.8544   9.9511   9.9525
     9.9716   9.9733   9.9775   9.9779   9.9802   9.9812  10.0167  10.0188
    10.0195  10.0312  10.0854  10.0992  10.1150  10.1157  10.1485  10.2749
    10.2758  10.2821  10.2873  10.2884  10.3234  10.4994  10.5647  10.5736
    10.5744  10.6651  10.6945  10.7795  10.9407  10.9477  10.9827  10.9837
    11.0194  11.0205  11.0468  11.0474  11.0697  11.0983  11.0990  11.1358
    11.5652  11.5655  11.6894  11.6897  11.8217  12.1099

          k =-0.0000 0.2887 0.1957 ( 95551 PWs)   bands (ev):

   -62.2850 -62.2847 -62.2824 -62.2821 -62.2815 -62.2812 -62.2811 -62.2811
   -62.2802 -62.2800 -62.2798 -62.2798 -62.2794 -62.2794 -62.2784 -62.2784
   -62.2784 -62.2777 -35.7206 -35.7206 -35.7179 -35.7179 -35.7179 -35.7177
   -35.7177 -35.7176 -35.7176 -35.7174 -35.7174 -35.7174 -35.7173 -35.7173
   -35.7172 -35.7172 -35.7171 -35.7171 -35.7171 -35.7171 -35.7171 -35.7170
   -35.7170 -35.7170 -35.7169 -35.7169 -35.7168 -35.7167 -35.7167 -35.7167
   -35.7166 -35.7166 -35.7165 -35.7165 -35.7165 -35.7163 -35.7163 -35.7163
   -35.7163 -35.7161 -35.7159 -35.7158 -35.7158 -35.7157 -35.7157 -35.7156
   -35.7156 -35.7154 -35.7154 -35.7154 -35.7153 -35.7153 -35.7153 -35.7153
   -35.7152 -35.7151 -35.7151 -35.7150 -35.7150 -35.7148 -35.7148 -35.7148
   -35.7148 -35.7147 -35.7147 -35.7147 -35.7147 -35.7145 -35.7144 -35.7144
   -35.7144 -35.7141 -35.6794 -35.6791 -35.6776 -35.6776 -35.6772 -35.6771
   -35.6771 -35.6770 -35.6770 -35.6769 -35.6769 -35.6768 -35.6768 -35.6767
   -35.6767 -35.6766 -35.6766 -35.6765 -35.6765 -35.6765 -35.6765 -35.6764
   -35.6764 -35.6764 -35.6763 -35.6763 -35.6763 -35.6763 -35.6762 -35.6762
   -35.6762 -35.6762 -35.6762 -35.6761 -35.6761 -35.6761 -35.6761 -35.6760
   -35.6760 -35.6759 -35.6759 -35.6759 -35.6759 -35.6759 -35.6758 -35.6758
   -35.6758 -35.6757 -35.6757 -35.6757 -35.6757 -35.6755 -35.6755 -35.6755
   -35.6754 -35.6754 -35.6753 -35.6753 -35.6752 -35.6752 -35.6752 -35.6751
   -35.6750 -35.6750 -35.6749 -35.6749 -35.6748 -35.6748 -35.6747 -35.6747
   -35.6746 -35.6745 -35.6614 -35.6605 -35.6601 -35.6600 -35.6598 -35.6597
   -35.6596 -35.6595 -35.6595 -35.6594 -35.6593 -35.6593 -35.6592 -35.6590
   -35.6590 -35.6589 -35.6587 -35.6587 -35.6581 -35.6576 -35.6575 -35.6574
   -35.6572 -35.6569 -35.6569 -35.6569 -35.6567 -35.6567 -35.6566 -35.6566
   -35.6564 -35.6564 -35.6563 -35.6562 -35.6560 -35.6560 -26.5647 -26.5643
   -26.5504 -26.5501 -26.5498 -26.5498 -26.5480 -26.5477 -26.5474 -26.5474
   -26.5169 -26.5165 -26.5163 -26.5163 -26.4974 -26.4972 -26.4969 -26.4969
   -26.4945 -26.4941 -26.4527 -26.4525 -26.4513 -26.4511 -26.4508 -26.4508
   -26.4482 -26.4478 -26.4415 -26.4412 -26.4410 -26.4409 -26.4382 -26.4379
   -26.4329 -26.4328 -26.4326 -26.4326 -26.4316 -26.4312 -26.4256 -26.4255
   -26.4253 -26.4253 -26.4235 -26.4234 -26.4234 -26.4230 -26.4182 -26.4182
   -26.4180 -26.4180 -26.4149 -26.4145  -2.6336  -2.4910  -1.9784  -1.8484
    -1.7050  -1.7034  -1.5847  -1.5830  -1.4535  -1.2813  -1.2798  -1.2154
    -1.1861  -1.1845  -1.1474  -1.1227  -1.0653  -0.9860  -0.9853  -0.9364
    -0.8248  -0.8240  -0.8058  -0.8044  -0.7791  -0.7785  -0.7676  -0.7663
    -0.7179  -0.6655  -0.6648  -0.6253  -0.5347  -0.5341  -0.4945  -0.4939
     5.7057   5.9190   6.0969   6.2318   6.2324   6.3895   6.4060   6.4065
     6.4723   6.4732   6.4744   6.5581   6.5595   6.6536   6.6544   6.8070
     6.8078   6.9130   6.9138   6.9992   6.9997   7.0282   7.1295   7.1956
     7.2335   7.2348   7.2783   7.2786   7.3187   7.3193   7.5201   7.5204
     7.5545   7.6170   7.6381   7.6389   7.6710   7.8035   7.8041   7.9689
     7.9701   7.9931   7.9937   8.0445   8.0667   8.0675   8.1853   8.1860
     8.2291   8.2304   8.2843   8.3961   8.3975   8.5932   8.7001   8.7020
     8.8253   8.8267   8.8571   8.8579   8.8989   8.9428   8.9437   8.9627
     8.9827   8.9832   9.0759   9.0991   9.1515   9.1529   9.1534   9.4611
     9.4784   9.4837   9.5395   9.7854   9.7863   9.8546   9.9511   9.9527
     9.9721   9.9733   9.9775   9.9782   9.9798   9.9807  10.0165  10.0187
    10.0195  10.0312  10.0854  10.0990  10.1148  10.1162  10.1483  10.2751
    10.2757  10.2821  10.2876  10.2885  10.3234  10.4994  10.5647  10.5734
    10.5740  10.6654  10.6945  10.7795  10.9407  10.9477  10.9832  10.9837
    11.0193  11.0202  11.0466  11.0474  11.0693  11.0984  11.0992  11.1361
    11.5653  11.5656  11.6893  11.6896  11.8217  12.1099

     highest occupied level (ev):    12.1100

!    total energy              =  -11463.73765603 Ry
     estimated scf accuracy    <          4.6E-11 Ry

     The total energy is the sum of the following terms:
     one-electron contribution =   -5894.92062522 Ry
     hartree contribution      =    3184.62593692 Ry
     xc contribution           =   -2339.58229403 Ry
     ewald contribution        =   -6411.92669620 Ry
     Dispersion Correction     =      -1.93397749 Ry

     convergence has been achieved in  26 iterations

     Forces acting on atoms (cartesian axes, Ry/au):

     atom    1 type  1   force =     0.00000483   -0.00000016   -0.00002850
     atom    2 type  1   force =    -0.00000031   -0.00000492    0.00000328
     atom    3 type  1   force =     0.00000268   -0.00000361    0.00000267
     atom    4 type  1   force =     0.00000416    0.00000163   -0.00000023
     atom    5 type  1   force =    -0.00000443   -0.00000040    0.00000584
     atom    6 type  1   force =    -0.00000037   -0.00000019   -0.00000159
     atom    7 type  1   force =     0.00000488    0.00000208    0.00000004
     atom    8 type  1   force =    -0.00000232    0.00000002   -0.00000569
     atom    9 type  1   force =    -0.00000073    0.00000468    0.00000558
     atom   10 type  1   force =     0.00189034   -0.00092505    0.00200769
     atom   11 type  1   force =     0.00000977    0.00002088    0.00005526
     atom   12 type  1   force =     0.00001119   -0.00015991    0.00061554
     atom   13 type  1   force =     0.00028819    0.00107600    0.00130310
     atom   14 type  1   force =     0.00002823    0.00006551    0.00009535
     atom   15 type  1   force =    -0.00001139   -0.00004193    0.00003292
     atom   16 type  1   force =    -0.00001061   -0.00001159    0.00005651
     atom   17 type  1   force =     0.00002585   -0.00000908    0.00005422
     atom   18 type  1   force =    -0.00008467   -0.00002268    0.00006400
     atom   19 type  2   force =    -0.00255496    0.00001042   -0.00396214
     atom   20 type  2   force =     0.00014975   -0.00000152    0.00033465
     atom   21 type  2   force =     0.00021407    0.00001044    0.00028514
     atom   22 type  2   force =     0.00003823   -0.00012708    0.00029416
     atom   23 type  2   force =     0.00001295    0.00006547    0.00032545
     atom   24 type  2   force =    -0.00000573    0.00000000    0.00041148
     atom   25 type  2   force =     0.00000489   -0.00005825    0.00031893
     atom   26 type  2   force =    -0.00000533    0.00000012    0.00041135
     atom   27 type  2   force =     0.00004621    0.00011018    0.00030072
     atom   28 type  2   force =    -0.00002876    0.00001431   -0.00038384
     atom   29 type  2   force =     0.00000125   -0.00000185   -0.00041420
     atom   30 type  2   force =     0.00005619    0.00003468   -0.00031865
     atom   31 type  2   force =    -0.00000351   -0.00004920   -0.00035115
     atom   32 type  2   force =    -0.00000316   -0.00000013   -0.00041935
     atom   33 type  2   force =     0.00000234   -0.00000306   -0.00041523
     atom   34 type  2   force =     0.00000210    0.00000087   -0.00041310
     atom   35 type  2   force =    -0.00000107    0.00000119   -0.00041554
     atom   36 type  2   force =    -0.00000254    0.00000332   -0.00041731
     atom   37 type  2   force =    -0.00000048    0.00000020    0.00041467
     atom   38 type  2   force =    -0.00000136    0.00000017    0.00041503
     atom   39 type  2   force =     0.00000038    0.00000019    0.00041451
     atom   40 type  2   force =     0.00000031   -0.00000038    0.00041458
     atom   41 type  2   force =     0.00000065    0.00000093    0.00041266
     atom   42 type  2   force =    -0.00000142    0.00000043    0.00041455
     atom   43 type  2   force =    -0.00000070    0.00000067    0.00041511
     atom   44 type  2   force =    -0.00000039   -0.00000073    0.00041503
     atom   45 type  2   force =    -0.00000049   -0.00000115    0.00041361
     atom   46 type  2   force =    -0.00005290   -0.00000014    0.00015675
     atom   47 type  2   force =     0.00007055    0.00006127   -0.00037699
     atom   48 type  2   force =    -0.00000726    0.00000756   -0.00043891
     atom   49 type  2   force =    -0.00007340    0.00001135   -0.00039968
     atom   50 type  2   force =     0.00002536    0.00002138   -0.00041641
     atom   51 type  2   force =     0.00000517    0.00000009   -0.00043806
     atom   52 type  2   force =    -0.00003455   -0.00011063   -0.00036854
     atom   53 type  2   force =     0.00000536    0.00000001   -0.00043810
     atom   54 type  2   force =    -0.00001301    0.00000760   -0.00044718

     Total force =     0.006285     Total SCF correction =     0.000040


     Computing stress (Cartesian axis) and pressure

          total   stress  (Ry/bohr**3)                   (kbar)     P=      -33.79
  -0.00027869  -0.00000022   0.00000075          -41.00       -0.03        0.11
  -0.00000022  -0.00027869  -0.00000000           -0.03      -41.00       -0.00
   0.00000075  -0.00000000  -0.00013178            0.11       -0.00      -19.39


     Writing all to output data dir ./WSe.save/ :
     XML data file, charge density, pseudopotentials, collected wavefunctions
 
     init_run     :     11.14s CPU     12.92s WALL (       1 calls)
     electrons    :    858.61s CPU   1029.73s WALL (       1 calls)
     forces       :      7.86s CPU      8.50s WALL (       1 calls)
     force_london :      0.04s CPU      0.04s WALL (       1 calls)
     stress       :    121.65s CPU    127.86s WALL (       1 calls)
     stres_london :      0.04s CPU      0.04s WALL (       1 calls)

     Called by init_run:
     wfcinit      :     10.16s CPU     11.81s WALL (       1 calls)
     potinit      :      0.06s CPU      0.10s WALL (       1 calls)
     hinit0       :      0.46s CPU      0.50s WALL (       1 calls)

     Called by electrons:
     c_bands      :    807.93s CPU    969.27s WALL (      27 calls)
     sum_band     :     47.94s CPU     56.59s WALL (      27 calls)
     v_of_rho     :      1.84s CPU      2.06s WALL (      27 calls)
     mix_rho      :      0.67s CPU      0.74s WALL (      27 calls)
     energy_londo :      0.04s CPU      0.04s WALL (       1 calls)

     Called by c_bands:
     init_us_2    :     10.44s CPU     10.55s WALL (     171 calls)
     init_us_2:cp :     10.43s CPU     10.55s WALL (     171 calls)
     cegterg      :    769.08s CPU    915.02s WALL (      81 calls)

     Called by *egterg:
     cdiaghg      :     48.95s CPU    123.79s WALL (     482 calls)
     h_psi        :    443.46s CPU    484.16s WALL (     488 calls)
     g_psi        :      1.83s CPU      1.89s WALL (     404 calls)

     Called by h_psi:
     h_psi:calbec :    115.81s CPU    123.14s WALL (     488 calls)
     vloc_psi     :    220.13s CPU    252.19s WALL (     488 calls)
     add_vuspsi   :    102.93s CPU    103.52s WALL (     488 calls)

     General routines
     calbec       :    123.45s CPU    134.46s WALL (     503 calls)
     fft          :      1.34s CPU      1.55s WALL (     295 calls)
     ffts         :      0.07s CPU      0.10s WALL (      27 calls)
     fftw         :    229.23s CPU    263.28s WALL (  209194 calls)
 
     Parallel routines
     fft_scatt_xy :     30.34s CPU     34.14s WALL (  209516 calls)
     fft_scatt_yz :    124.60s CPU    145.93s WALL (  209516 calls)
 
     PWSCF        :  16m41.37s CPU  19m56.15s WALL

 
   This run was terminated on:  17:48:19   5Nov2024            

=------------------------------------------------------------------------------=
   JOB DONE.
=------------------------------------------------------------------------------=
