54   
3    

1    
  0.0123263299851592   0.0000000000000000   0.0157499710824168
  -0.0049232702    0.0000152907   -0.0078752306
   0.0000343298   -0.0002334393   -0.0001909806
   0.0000305498    0.0002314407   -0.0001930406
   0.0000515398   -0.0002193593   -0.0001945106
   0.0000546798    0.0002213607   -0.0001897606
   0.0000615698   -0.0000000693    0.0000175694
   0.0000541598    0.0002425307   -0.0001936306
   0.0000616498    0.0000004707    0.0000174294
   0.0000525698   -0.0002462793   -0.0001906406
   0.0000012998    0.0000024107    0.0000001894
  -0.0000018302    0.0000001807    0.0000083894
   0.0000010498   -0.0000023693   -0.0000002006
   0.0000051398    0.0000001507    0.0000001894
   0.0000019498    0.0000037107    0.0000115894
   0.0000014798   -0.0000034493    0.0000115794
   0.0000038598    0.0000034307    0.0000081694
   0.0000039998   -0.0000032293    0.0000084294
  -0.0000045002   -0.0000000593    0.0000117294
   0.0000084898   -0.0000003593   -0.0000391406
   0.0000026698    0.0000086107    0.0000041494
   0.0000013598    0.0000038907    0.0000012794
  -0.0000029002   -0.0000030493    0.0000053494
   0.0000093198   -0.0000017293    0.0000004094
  -0.0000037702   -0.0000001693   -0.0000094706
  -0.0000049702   -0.0000035493    0.0000067794
  -0.0000005402   -0.0000001893   -0.0000052906
   0.0000049698   -0.0000038893   -0.0000011206
   0.0019867898   -0.0009874793    0.0022169394
   0.0000136698    0.0000022307    0.0000518894
   0.0000444898   -0.0001348993    0.0005848594
   0.0002768898    0.0011147007    0.0013938694
   0.0000536398    0.0000818807    0.0000946794
  -0.0000226102   -0.0000386993    0.0000436894
   0.0000091998   -0.0000022993    0.0000411694
   0.0000127298    0.0000013607    0.0000627194
  -0.0000895402   -0.0000431293    0.0000689094
   0.0000412198    0.0001371307    0.0005808594
   0.0000123498   -0.0000009993    0.0000467994
   0.0019050098    0.0009380207    0.0021302794
   0.0002791198   -0.0010822893    0.0013620494
  -0.0000229402    0.0000383707    0.0000390594
   0.0000503298   -0.0000813493    0.0000898394
   0.0000110498   -0.0000003793    0.0000587894
   0.0000093998    0.0000026307    0.0000346794
  -0.0000905302    0.0000432007    0.0000647294
   0.0000082398   -0.0000003293   -0.0000350806
   0.0000010198   -0.0000035293    0.0000060094
   0.0000033398   -0.0000082493    0.0000091494
   0.0000086898    0.0000014007    0.0000048394
  -0.0000020602    0.0000029307    0.0000097894
  -0.0000038002   -0.0000001793   -0.0000053606
   0.0000047098    0.0000041107    0.0000035094
  -0.0000004702   -0.0000001693   -0.0000004306
  -0.0000047902    0.0000037207    0.0000115494

19   
  0.0123263299851592   0.0000000000000000   0.0157499710824168
   0.0000079800   -0.0000003200   -0.0000367096
   0.0000002500   -0.0000064400    0.0000047404
   0.0000040600   -0.0000037000    0.0000061104
   0.0000049800    0.0000017500    0.0000017304
  -0.0000051500   -0.0000001300    0.0000091304
  -0.0000004500    0.0000001100   -0.0000025796
   0.0000061900    0.0000023000    0.0000009404
  -0.0000033300   -0.0000000100   -0.0000070096
  -0.0000001200    0.0000057300    0.0000097904
   0.0020546700   -0.0010256300    0.0021673204
   0.0000134400    0.0000170300    0.0000494904
  -0.0000194500   -0.0001720600    0.0006300204
   0.0002784300    0.0011881800    0.0013893904
   0.0000468300    0.0000795700    0.0000967204
  -0.0000182200   -0.0000414700    0.0000369504
  -0.0000044800   -0.0000101200    0.0000486604
   0.0000253400   -0.0000067000    0.0000504204
  -0.0000905200   -0.0000373300    0.0000666604
  -0.0027552400    0.0000107400   -0.0046905396
   0.0001668600   -0.0000005700   -0.0000782196
   0.0002340200    0.0000125600   -0.0001305696
   0.0000433900   -0.0001373200   -0.0001217196
   0.0000188100    0.0000711600   -0.0000872696
  -0.0000056200   -0.0000001200   -0.0000011196
   0.0000085000   -0.0000644100   -0.0000956296
  -0.0000055500   -0.0000000400   -0.0000015496
   0.0000538400    0.0001180600   -0.0001135096
  -0.0000464500    0.0000216800    0.0000412704
   0.0000016100   -0.0000025900    0.0000013504
   0.0000875000    0.0000553300    0.0001448804
  -0.0000085500   -0.0000773500    0.0000933504
  -0.0000037500    0.0000001400   -0.0000067096
   0.0000036000   -0.0000043400   -0.0000008596
   0.0000031400    0.0000011200    0.0000030004
  -0.0000012400    0.0000017900   -0.0000003996
  -0.0000038600    0.0000044400   -0.0000039196
  -0.0000003700    0.0000001300    0.0000001004
  -0.0000020200    0.0000001600   -0.0000002896
   0.0000000200   -0.0000000500    0.0000000104
   0.0000000800   -0.0000002200   -0.0000001096
   0.0000011900    0.0000013400   -0.0000033596
  -0.0000019700    0.0000005300   -0.0000008796
  -0.0000008100    0.0000009100   -0.0000001496
  -0.0000004600   -0.0000007800   -0.0000003996
  -0.0000010100   -0.0000016300   -0.0000020096
  -0.0000580500   -0.0000000500    0.0005193404
   0.0000707100    0.0000638200    0.0000437404
  -0.0000121100    0.0000117700   -0.0000220096
  -0.0000789400    0.0000117300    0.0000202104
   0.0000280900    0.0000220200    0.0000011004
   0.0000071900   -0.0000000000   -0.0000256296
  -0.0000373700   -0.0001131600    0.0000534504
   0.0000071500   -0.0000000700   -0.0000253196
  -0.0000127800    0.0000025100   -0.0000314096

19   
 -0.0123263299851592   0.0000000000000000  -0.0157499710824168
  -0.0000085798   -0.0000000502    0.0000369696
   0.0000004102    0.0000056798   -0.0000047604
  -0.0000046598    0.0000029998   -0.0000062404
  -0.0000052798   -0.0000014402   -0.0000016804
   0.0000049302    0.0000007898   -0.0000092804
   0.0000005102   -0.0000001902    0.0000025996
  -0.0000058798   -0.0000027302   -0.0000009804
   0.0000034302    0.0000001598    0.0000070896
  -0.0000007498   -0.0000059202   -0.0000100504
  -0.0019664198    0.0009750098   -0.0020781604
  -0.0000130698   -0.0000167902   -0.0000486504
   0.0000244102    0.0001747298   -0.0006364404
  -0.0002778898   -0.0011580602   -0.0013661404
  -0.0000475798   -0.0000786102   -0.0000948504
   0.0000181802    0.0000415898   -0.0000376404
   0.0000037902    0.0000096698   -0.0000474904
  -0.0000250798    0.0000068998   -0.0000499004
   0.0000893802    0.0000378298   -0.0000664004
   0.0026682302    0.0000108498    0.0045726696
  -0.0001655498    0.0000001898    0.0000712396
  -0.0002348498   -0.0000126402    0.0001257896
  -0.0000420798    0.0001364998    0.0001168396
  -0.0000210698   -0.0000717702    0.0000812696
   0.0000056102   -0.0000003602   -0.0000042404
  -0.0000085598    0.0000644298    0.0000888696
   0.0000050602   -0.0000007202   -0.0000038104
  -0.0000539798   -0.0001171502    0.0001080296
   0.0000473202   -0.0000220002   -0.0000357704
  -0.0000009898    0.0000021698    0.0000018096
  -0.0000898598   -0.0000565102   -0.0001427204
   0.0000085102    0.0000786898   -0.0000886704
   0.0000042702   -0.0000001902    0.0000111396
  -0.0000034198    0.0000039898    0.0000049596
  -0.0000023898   -0.0000007402    0.0000006796
   0.0000006102   -0.0000007402    0.0000041496
   0.0000039302   -0.0000043602    0.0000080796
   0.0000010902   -0.0000005202   -0.0000046904
   0.0000026302   -0.0000005102   -0.0000029904
  -0.0000011798    0.0000000098   -0.0000043404
  -0.0000005698    0.0000008498   -0.0000049304
  -0.0000007298   -0.0000014002   -0.0000011404
   0.0000021602   -0.0000009402   -0.0000031804
   0.0000014802   -0.0000005802   -0.0000036504
  -0.0000000498    0.0000017398   -0.0000033704
   0.0000010202    0.0000017798   -0.0000021404
   0.0000560802    0.0000006798   -0.0005077804
  -0.0000703798   -0.0000640602   -0.0000373804
   0.0000135502   -0.0000126402    0.0000272696
   0.0000792402   -0.0000115402   -0.0000153904
  -0.0000304098   -0.0000226102    0.0000033996
  -0.0000069698   -0.0000002702    0.0000313696
   0.0000376402    0.0001106498   -0.0000467704
  -0.0000076698   -0.0000007102    0.0000307996
   0.0000124202   -0.0000011302    0.0000366096
