
     Program PWSCF v.7.3 starts on  5Nov2024 at 17: 7:35 

     This program is part of the open-source Quantum ESPRESSO suite
     for quantum simulation of materials; please cite
         "P. Giannozzi et al., J. Phys.:Condens. Matter 21 395502 (2009);
         "P. Giannozzi et al., J. Phys.:Condens. Matter 29 465901 (2017);
         "P. Giannozzi et al., J. Chem. Phys. 152 154105 (2020);
          URL http://www.quantum-espresso.org", 
     in publications or presentations arising from this work. More details at
     http://www.quantum-espresso.org/quote

     Parallel version (MPI & OpenMP), running on     256 processor cores
     Number of MPI processes:               256
     Threads/MPI process:                     1

     MPI processes distributed on     1 nodes
     478916 MiB available memory on the printing compute node when the environment starts
 
     Waiting for input...
     Reading input from standard input

     Current dimensions of program PWSCF are:
     Max number of different atomic species (ntypx) = 10
     Max number of k-points (npk) =  40000
     Max angular momentum in pseudopotentials (lmaxx) =  4
 
     K-points division:     npool     =       4
     R & G space division:  proc/nbgrp/npool/nimage =      64
     Subspace diagonalization in iterative solution of the eigenvalue problem:
     one sub-group per band group will be used
     scalapack distributed-memory algorithm (size of sub-group:  4*  4 procs)

 
     Parallelization info
     --------------------
     sticks:   dense  smooth     PW     G-vecs:    dense   smooth      PW
     Min         122     122     32                11252    11252    1492
     Max         123     123     33                11261    11261    1499
     Sum        7861    7861   2053               720389   720389   95627
 
     Using Pencil Decomposition
 


     bravais-lattice index     =            0
     lattice parameter (alat)  =      18.8835  a.u.
     unit-cell volume          =    7451.1810 (a.u.)^3
     number of atoms/cell      =           54
     number of atomic types    =            2
     number of electrons       =       828.00
     number of Kohn-Sham states=          414
     kinetic-energy cutoff     =      80.0000  Ry
     charge density cutoff     =     320.0000  Ry
     scf convergence threshold =      1.0E-10
     mixing beta               =       0.5000
     number of iterations used =            8  plain     mixing
     Exchange-correlation= PBE
                           (   1   4   3   4   0   0   0)

     celldm(1)=  18.883515  celldm(2)=   0.000000  celldm(3)=   0.000000
     celldm(4)=   0.000000  celldm(5)=   0.000000  celldm(6)=   0.000000

     crystal axes: (cart. coord. in units of alat)
               a(1) = (   1.000000   0.000000   0.000000 )  
               a(2) = (  -0.500000   0.866025   0.000000 )  
               a(3) = (   0.000000   0.000000   1.277750 )  

     reciprocal axes: (cart. coord. in units 2 pi/alat)
               b(1) = (  1.000000  0.577350  0.000000 )  
               b(2) = (  0.000000  1.154701  0.000000 )  
               b(3) = (  0.000000  0.000000  0.782626 )  


     PseudoPot. # 1 for W  read from file:
     /users/rkarkee/pbe_pseudo/W.upf
     MD5 check sum: cb94e439a9e4ea809831d6e90c63864e
     Pseudo is Norm-conserving + core correction, Zval = 14.0
     Generated using ONCVPSP code by D. R. Hamann
     Using radial grid of 1396 points,  8 beta functions with: 
                l(1) =   0
                l(2) =   0
                l(3) =   1
                l(4) =   1
                l(5) =   2
                l(6) =   2
                l(7) =   3
                l(8) =   3

     PseudoPot. # 2 for Se read from file:
     /users/rkarkee/pbe_pseudo/Se.upf
     MD5 check sum: 3cc46b3642295b3f4fdae63b742ce36d
     Pseudo is Norm-conserving + core correction, Zval = 16.0
     Generated using ONCVPSP code by D. R. Hamann
     Using radial grid of 1214 points,  6 beta functions with: 
                l(1) =   0
                l(2) =   0
                l(3) =   1
                l(4) =   1
                l(5) =   2
                l(6) =   2

     atomic species   valence    mass     pseudopotential
     W                14.00   183.84000     W ( 1.00)
     Se               16.00    78.96000     Se( 1.00)

     No symmetry found



   Cartesian axes

     site n.     atom                  positions (alat units)
         1        W      tau(   1) = (   0.0006528   0.1924501   0.9591467  )
         2        W      tau(   2) = (   0.3333333   0.1924501   0.9583127  )
         3        W      tau(   3) = (   0.6666667   0.1924501   0.9583127  )
         4        W      tau(   4) = (  -0.1666667   0.4811252   0.9583127  )
         5        W      tau(   5) = (   0.1666667   0.4811252   0.9583127  )
         6        W      tau(   6) = (   0.5000000   0.4811252   0.9583127  )
         7        W      tau(   7) = (  -0.3333333   0.7698004   0.9583127  )
         8        W      tau(   8) = (   0.0000000   0.7698004   0.9583127  )
         9        W      tau(   9) = (   0.3333333   0.7698004   0.9583127  )
        10        W      tau(  10) = (   0.1666667   0.0962250   0.3194376  )
        11        W      tau(  11) = (   0.5000000   0.0962250   0.3194376  )
        12        W      tau(  12) = (   0.8333333   0.0962250   0.3194376  )
        13        W      tau(  13) = (  -0.0000000   0.3849002   0.3194376  )
        14        W      tau(  14) = (   0.3333333   0.3849002   0.3194376  )
        15        W      tau(  15) = (   0.6666667   0.3849002   0.3194376  )
        16        W      tau(  16) = (  -0.1666667   0.6735753   0.3194376  )
        17        W      tau(  17) = (   0.1666667   0.6735753   0.3194376  )
        18        W      tau(  18) = (   0.5000000   0.6735753   0.3194376  )
        19        Se     tau(  19) = (  -0.0000000   0.1924501   0.1528574  )
        20        Se     tau(  20) = (   0.3333333   0.1924501   0.1528574  )
        21        Se     tau(  21) = (   0.6666667   0.1924501   0.1528574  )
        22        Se     tau(  22) = (  -0.1666667   0.4811252   0.1528574  )
        23        Se     tau(  23) = (   0.1666667   0.4811252   0.1528574  )
        24        Se     tau(  24) = (   0.5000000   0.4811252   0.1528574  )
        25        Se     tau(  25) = (  -0.3333333   0.7698004   0.1528574  )
        26        Se     tau(  26) = (   0.0000000   0.7698004   0.1528574  )
        27        Se     tau(  27) = (   0.3333333   0.7698004   0.1528574  )
        28        Se     tau(  28) = (   0.1666667   0.0962250   1.1248928  )
        29        Se     tau(  29) = (   0.5000000   0.0962250   1.1248928  )
        30        Se     tau(  30) = (   0.8333333   0.0962250   1.1248928  )
        31        Se     tau(  31) = (  -0.0000000   0.3849002   1.1248928  )
        32        Se     tau(  32) = (   0.3333333   0.3849002   1.1248928  )
        33        Se     tau(  33) = (   0.6666667   0.3849002   1.1248928  )
        34        Se     tau(  34) = (  -0.1666667   0.6735753   1.1248928  )
        35        Se     tau(  35) = (   0.1666667   0.6735753   1.1248928  )
        36        Se     tau(  36) = (   0.5000000   0.6735753   1.1248928  )
        37        Se     tau(  37) = (   0.1666667   0.0962250   0.7917325  )
        38        Se     tau(  38) = (   0.5000000   0.0962250   0.7917325  )
        39        Se     tau(  39) = (   0.8333333   0.0962250   0.7917325  )
        40        Se     tau(  40) = (  -0.0000000   0.3849002   0.7917325  )
        41        Se     tau(  41) = (   0.3333333   0.3849002   0.7917325  )
        42        Se     tau(  42) = (   0.6666667   0.3849002   0.7917325  )
        43        Se     tau(  43) = (  -0.1666667   0.6735753   0.7917325  )
        44        Se     tau(  44) = (   0.1666667   0.6735753   0.7917325  )
        45        Se     tau(  45) = (   0.5000000   0.6735753   0.7917325  )
        46        Se     tau(  46) = (  -0.0000000   0.1924501   0.4860177  )
        47        Se     tau(  47) = (   0.3333333   0.1924501   0.4860177  )
        48        Se     tau(  48) = (   0.6666667   0.1924501   0.4860177  )
        49        Se     tau(  49) = (  -0.1666667   0.4811252   0.4860177  )
        50        Se     tau(  50) = (   0.1666667   0.4811252   0.4860177  )
        51        Se     tau(  51) = (   0.5000000   0.4811252   0.4860177  )
        52        Se     tau(  52) = (  -0.3333333   0.7698004   0.4860177  )
        53        Se     tau(  53) = (   0.0000000   0.7698004   0.4860177  )
        54        Se     tau(  54) = (   0.3333333   0.7698004   0.4860177  )

     -------------------------------------------------
     Parameters for Dispersion (Grimme-D2) Correction:
     -------------------------------------------------
       atom      VdW radius       C_6     

        W          3.349       2818.308
        Se         3.347        438.498

     number of k points=    12
                       cart. coord. in units 2pi/alat
        k(    1) = (   0.2500000   0.4330127   0.1956564), wk =   0.1666667
        k(    2) = (   0.2500000  -0.1443376   0.1956564), wk =   0.1666667
        k(    3) = (  -0.2500000  -0.4330127   0.1956564), wk =   0.1666667
        k(    4) = (  -0.2500000   0.4330127  -0.1956564), wk =   0.1666667
        k(    5) = (   0.2500000  -0.4330127  -0.1956564), wk =   0.1666667
        k(    6) = (   0.5000000  -0.0000000   0.1956564), wk =   0.1666667
        k(    7) = (  -0.5000000   0.0000000   0.1956564), wk =   0.1666667
        k(    8) = (  -0.2500000   0.1443376   0.1956564), wk =   0.1666667
        k(    9) = (  -0.2500000  -0.1443376  -0.1956564), wk =   0.1666667
        k(   10) = (   0.2500000   0.1443376  -0.1956564), wk =   0.1666667
        k(   11) = (   0.0000000  -0.2886751   0.1956564), wk =   0.1666667
        k(   12) = (   0.0000000   0.2886751   0.1956564), wk =   0.1666667

     Dense  grid:   720389 G-vectors     FFT dimensions: ( 108, 108, 144)

     Estimated max dynamical RAM per process >     121.33 MB

     Estimated total dynamical RAM >      29.82 GB

     Initial potential from superposition of free atoms

     starting charge     827.9882, renormalised to     828.0000
     Starting wfcs are  504 randomized atomic wfcs

     total cpu time spent up to now is       13.9 secs

     Self-consistent Calculation

     iteration #  1     ecut=    80.00 Ry     beta= 0.50
     Davidson diagonalization with overlap
     ethr =  1.00E-02,  avg # of iterations =  2.0

     Threshold (ethr) on eigenvalues was too large:
     Diagonalizing with lowered threshold

     Davidson diagonalization with overlap
     ethr =  8.61E-05,  avg # of iterations =  5.5

     total cpu time spent up to now is       93.3 secs

     total energy              =  -11463.60412273 Ry
     estimated scf accuracy    <       1.12756640 Ry

     iteration #  2     ecut=    80.00 Ry     beta= 0.50
     Davidson diagonalization with overlap
     ethr =  1.36E-04,  avg # of iterations =  2.3

     total cpu time spent up to now is      124.8 secs

     total energy              =  -11463.72240177 Ry
     estimated scf accuracy    <       0.23494001 Ry

     iteration #  3     ecut=    80.00 Ry     beta= 0.50
     Davidson diagonalization with overlap
     ethr =  2.84E-05,  avg # of iterations =  5.3

     total cpu time spent up to now is      167.4 secs

     total energy              =  -11463.74019732 Ry
     estimated scf accuracy    <       0.22516353 Ry

     iteration #  4     ecut=    80.00 Ry     beta= 0.50
     Davidson diagonalization with overlap
     ethr =  2.72E-05,  avg # of iterations =  5.5

     total cpu time spent up to now is      202.7 secs

     total energy              =  -11463.78383302 Ry
     estimated scf accuracy    <       0.00856467 Ry

     iteration #  5     ecut=    80.00 Ry     beta= 0.50
     Davidson diagonalization with overlap
     ethr =  1.03E-06,  avg # of iterations =  6.0

     total cpu time spent up to now is      247.3 secs

     total energy              =  -11463.78511678 Ry
     estimated scf accuracy    <       0.01508434 Ry

     iteration #  6     ecut=    80.00 Ry     beta= 0.50
     Davidson diagonalization with overlap
     ethr =  1.03E-06,  avg # of iterations =  3.0

     total cpu time spent up to now is      279.0 secs

     total energy              =  -11463.78325093 Ry
     estimated scf accuracy    <       0.00604146 Ry

     iteration #  7     ecut=    80.00 Ry     beta= 0.50
     Davidson diagonalization with overlap
     ethr =  7.30E-07,  avg # of iterations =  5.5

     total cpu time spent up to now is      323.5 secs

     total energy              =  -11463.78560818 Ry
     estimated scf accuracy    <       0.00751841 Ry

     iteration #  8     ecut=    80.00 Ry     beta= 0.50
     Davidson diagonalization with overlap
     ethr =  7.30E-07,  avg # of iterations =  2.0

     total cpu time spent up to now is      351.0 secs

     total energy              =  -11463.78477945 Ry
     estimated scf accuracy    <       0.00375561 Ry

     iteration #  9     ecut=    80.00 Ry     beta= 0.50
     Davidson diagonalization with overlap
     ethr =  4.54E-07,  avg # of iterations =  5.1

     total cpu time spent up to now is      387.5 secs

     total energy              =  -11463.78544034 Ry
     estimated scf accuracy    <       0.00006770 Ry

     iteration # 10     ecut=    80.00 Ry     beta= 0.50
     Davidson diagonalization with overlap
     ethr =  8.18E-09,  avg # of iterations =  6.6

     total cpu time spent up to now is      434.2 secs

     total energy              =  -11463.78545275 Ry
     estimated scf accuracy    <       0.00008326 Ry

     iteration # 11     ecut=    80.00 Ry     beta= 0.50
     Davidson diagonalization with overlap
     ethr =  8.18E-09,  avg # of iterations =  6.0

     total cpu time spent up to now is      476.1 secs

     total energy              =  -11463.78547361 Ry
     estimated scf accuracy    <       0.00006486 Ry

     iteration # 12     ecut=    80.00 Ry     beta= 0.50
     Davidson diagonalization with overlap
     ethr =  7.83E-09,  avg # of iterations =  2.8

     total cpu time spent up to now is      504.9 secs

     total energy              =  -11463.78547140 Ry
     estimated scf accuracy    <       0.00001822 Ry

     iteration # 13     ecut=    80.00 Ry     beta= 0.50
     Davidson diagonalization with overlap
     ethr =  2.20E-09,  avg # of iterations =  6.0

     total cpu time spent up to now is      550.5 secs

     total energy              =  -11463.78547729 Ry
     estimated scf accuracy    <       0.00001303 Ry

     iteration # 14     ecut=    80.00 Ry     beta= 0.50
     Davidson diagonalization with overlap
     ethr =  1.57E-09,  avg # of iterations =  2.0

     total cpu time spent up to now is      580.3 secs

     total energy              =  -11463.78547662 Ry
     estimated scf accuracy    <       0.00000509 Ry

     iteration # 15     ecut=    80.00 Ry     beta= 0.50
     Davidson diagonalization with overlap
     ethr =  6.15E-10,  avg # of iterations =  6.0

     total cpu time spent up to now is      619.7 secs

     total energy              =  -11463.78547759 Ry
     estimated scf accuracy    <       0.00000032 Ry

     iteration # 16     ecut=    80.00 Ry     beta= 0.50
     Davidson diagonalization with overlap
     ethr =  3.87E-11,  avg # of iterations =  6.0

     total cpu time spent up to now is      656.4 secs

     total energy              =  -11463.78547764 Ry
     estimated scf accuracy    <       0.00000008 Ry

     iteration # 17     ecut=    80.00 Ry     beta= 0.50
     Davidson diagonalization with overlap
     ethr =  9.82E-12,  avg # of iterations =  6.0

     total cpu time spent up to now is      691.5 secs

     total energy              =  -11463.78547763 Ry
     estimated scf accuracy    <       0.00000004 Ry

     iteration # 18     ecut=    80.00 Ry     beta= 0.50
     Davidson diagonalization with overlap
     ethr =  4.74E-12,  avg # of iterations =  6.0

     total cpu time spent up to now is      729.5 secs

     total energy              =  -11463.78547764 Ry
     estimated scf accuracy    <          2.7E-09 Ry

     iteration # 19     ecut=    80.00 Ry     beta= 0.50
     Davidson diagonalization with overlap
     ethr =  3.22E-13,  avg # of iterations =  6.6

     total cpu time spent up to now is      775.1 secs

     total energy              =  -11463.78547764 Ry
     estimated scf accuracy    <          3.6E-09 Ry

     iteration # 20     ecut=    80.00 Ry     beta= 0.50
     Davidson diagonalization with overlap
     ethr =  3.22E-13,  avg # of iterations =  6.5

     total cpu time spent up to now is      810.2 secs

     total energy              =  -11463.78547764 Ry
     estimated scf accuracy    <          6.9E-10 Ry

     iteration # 21     ecut=    80.00 Ry     beta= 0.50
     Davidson diagonalization with overlap
     ethr =  1.00E-13,  avg # of iterations =  6.2

     total cpu time spent up to now is      847.8 secs

     total energy              =  -11463.78547764 Ry
     estimated scf accuracy    <          1.7E-10 Ry

     iteration # 22     ecut=    80.00 Ry     beta= 0.50
     Davidson diagonalization with overlap
     ethr =  1.00E-13,  avg # of iterations =  2.0

     total cpu time spent up to now is      876.0 secs

     End of self-consistent calculation

          k = 0.2500 0.4330 0.1957 ( 90083 PWs)   bands (ev):

   -61.1672 -61.1671 -61.1655 -61.1653 -61.1653 -61.1651 -61.1619 -61.1617
   -61.1617 -61.1615 -61.1606 -61.1604 -61.1604 -61.1604 -61.1604 -61.1600
   -61.1599 -61.1598 -34.7048 -34.7047 -34.7028 -34.7027 -34.7022 -34.7021
   -34.7019 -34.7019 -34.7019 -34.7018 -34.7018 -34.7016 -34.7016 -34.7016
   -34.7016 -34.7015 -34.7015 -34.7015 -34.7014 -34.7014 -34.7014 -34.7013
   -34.7012 -34.7012 -34.7011 -34.7011 -34.7010 -34.7010 -34.7009 -34.7009
   -34.7008 -34.7008 -34.7007 -34.7007 -34.7006 -34.7005 -34.7005 -34.7004
   -34.7004 -34.7004 -34.7003 -34.7002 -34.7002 -34.6999 -34.6999 -34.6999
   -34.6995 -34.6993 -34.6991 -34.6990 -34.6990 -34.6989 -34.6988 -34.6988
   -34.6988 -34.6987 -34.6986 -34.6986 -34.6984 -34.6984 -34.6982 -34.6982
   -34.6982 -34.6981 -34.6979 -34.6979 -34.6978 -34.6978 -34.6976 -34.6973
   -34.6958 -34.6955 -34.6692 -34.6689 -34.6673 -34.6667 -34.6663 -34.6663
   -34.6662 -34.6662 -34.6661 -34.6660 -34.6659 -34.6659 -34.6658 -34.6658
   -34.6658 -34.6658 -34.6657 -34.6657 -34.6657 -34.6656 -34.6656 -34.6655
   -34.6655 -34.6654 -34.6653 -34.6653 -34.6653 -34.6652 -34.6652 -34.6651
   -34.6651 -34.6650 -34.6650 -34.6650 -34.6649 -34.6649 -34.6649 -34.6648
   -34.6648 -34.6648 -34.6648 -34.6647 -34.6647 -34.6647 -34.6646 -34.6646
   -34.6645 -34.6644 -34.6644 -34.6643 -34.6643 -34.6642 -34.6642 -34.6641
   -34.6641 -34.6640 -34.6640 -34.6640 -34.6639 -34.6639 -34.6638 -34.6638
   -34.6637 -34.6637 -34.6636 -34.6636 -34.6635 -34.6633 -34.6631 -34.6625
   -34.6611 -34.6607 -34.6524 -34.6504 -34.6502 -34.6501 -34.6499 -34.6498
   -34.6498 -34.6494 -34.6492 -34.6492 -34.6491 -34.6490 -34.6489 -34.6489
   -34.6488 -34.6488 -34.6487 -34.6483 -34.6480 -34.6479 -34.6476 -34.6475
   -34.6475 -34.6471 -34.6468 -34.6467 -34.6466 -34.6464 -34.6464 -34.6463
   -34.6463 -34.6463 -34.6462 -34.6461 -34.6458 -34.6439 -25.4826 -25.4824
   -25.4824 -25.4822 -25.4734 -25.4733 -25.4525 -25.4524 -25.4402 -25.4399
   -25.4398 -25.4397 -25.3730 -25.3730 -25.3728 -25.3727 -25.3686 -25.3683
   -25.3683 -25.3680 -25.3661 -25.3660 -25.3640 -25.3639 -25.3639 -25.3637
   -25.3459 -25.3458 -25.3458 -25.3457 -25.3456 -25.3456 -25.3456 -25.3453
   -25.3425 -25.3422 -25.3422 -25.3419 -25.3391 -25.3389 -25.3389 -25.3389
   -25.3389 -25.3385 -25.3364 -25.3364 -25.3258 -25.3257 -25.3091 -25.3089
   -25.3089 -25.3087 -25.2968 -25.2968  -1.6343  -1.4392  -1.2743  -1.2734
    -1.0875  -1.0865  -0.5523  -0.4143  -0.4132  -0.3589  -0.3581  -0.2720
    -0.2709  -0.2437  -0.0856  -0.0848  -0.0296   0.0040   0.0049   0.0721
     0.0939   0.0947   0.0975   0.0984   0.1497   0.2168   0.2684   0.2694
     0.2990   0.3015   0.3028   0.3825   0.3927   0.3939   0.4110   0.4482
     6.6605   6.6611   6.6810   6.8872   6.8884   6.8890   7.0893   7.1092
     7.1104   7.3790   7.4453   7.4814   7.4823   7.4961   7.6610   7.6616
     7.7265   7.7664   7.7938   7.7944   7.8604   7.8611   7.8711   7.8724
     7.9411   8.0749   8.2443   8.2452   8.3499   8.3511   8.5296   8.5303
     8.5908   8.6240   8.6251   8.6911   8.7936   8.8532   8.8540   8.8904
     8.8910   8.9599   8.9608   9.0059   9.0556   9.0564   9.3404   9.3981
     9.4001   9.4503   9.4516   9.5825   9.6042   9.6657   9.7060   9.7227
     9.7315   9.7825   9.7837   9.8263   9.8420   9.8429   9.8755   9.8763
     9.9215   9.9465   9.9484  10.0769  10.3318  10.3804  10.3825  10.4041
    10.4050  10.5121  10.5131  10.5355  10.5379  10.6331  10.6778  10.7250
    10.7265  10.7568  10.7794  10.9179  10.9191  10.9200  10.9856  10.9878
    10.9897  10.9947  11.0279  11.0298  11.0759  11.1017  11.1020  11.1650
    11.2516  11.2521  11.2575  11.2578  11.3761  11.3765  11.5273  11.5277
    11.6291  11.8899  11.8905  11.9864  12.1772  12.1784  12.1835  12.1843
    12.2139  12.2143  12.2515  12.2525  12.2667  12.2671  12.3439  12.3588
    12.3599  12.4100  12.4453  12.6182  12.6287  12.7714

          k = 0.2500-0.1443 0.1957 ( 89997 PWs)   bands (ev):

   -61.1682 -61.1682 -61.1646 -61.1646 -61.1633 -61.1632 -61.1632 -61.1632
   -61.1615 -61.1614 -61.1614 -61.1614 -61.1609 -61.1609 -61.1596 -61.1596
   -61.1596 -61.1595 -34.7048 -34.7047 -34.7029 -34.7027 -34.7024 -34.7021
   -34.7021 -34.7021 -34.7019 -34.7018 -34.7018 -34.7017 -34.7017 -34.7017
   -34.7017 -34.7017 -34.7016 -34.7015 -34.7014 -34.7014 -34.7014 -34.7013
   -34.7013 -34.7013 -34.7012 -34.7012 -34.7011 -34.7011 -34.7011 -34.7010
   -34.7009 -34.7008 -34.7007 -34.7007 -34.7006 -34.7004 -34.7001 -34.7000
   -34.7000 -34.6999 -34.6999 -34.6997 -34.6995 -34.6995 -34.6995 -34.6994
   -34.6994 -34.6993 -34.6992 -34.6990 -34.6990 -34.6990 -34.6988 -34.6988
   -34.6988 -34.6987 -34.6987 -34.6986 -34.6986 -34.6986 -34.6986 -34.6983
   -34.6983 -34.6983 -34.6982 -34.6981 -34.6979 -34.6977 -34.6976 -34.6974
   -34.6958 -34.6956 -34.6692 -34.6689 -34.6673 -34.6668 -34.6665 -34.6664
   -34.6662 -34.6662 -34.6661 -34.6660 -34.6659 -34.6658 -34.6657 -34.6657
   -34.6657 -34.6656 -34.6656 -34.6656 -34.6656 -34.6655 -34.6655 -34.6655
   -34.6655 -34.6654 -34.6654 -34.6653 -34.6653 -34.6652 -34.6652 -34.6652
   -34.6651 -34.6651 -34.6651 -34.6650 -34.6650 -34.6650 -34.6649 -34.6649
   -34.6649 -34.6648 -34.6648 -34.6648 -34.6647 -34.6647 -34.6646 -34.6646
   -34.6646 -34.6646 -34.6645 -34.6644 -34.6644 -34.6643 -34.6642 -34.6641
   -34.6640 -34.6640 -34.6639 -34.6639 -34.6639 -34.6638 -34.6638 -34.6638
   -34.6637 -34.6636 -34.6636 -34.6635 -34.6634 -34.6633 -34.6631 -34.6626
   -34.6611 -34.6607 -34.6524 -34.6505 -34.6504 -34.6500 -34.6497 -34.6497
   -34.6495 -34.6494 -34.6494 -34.6493 -34.6491 -34.6491 -34.6490 -34.6489
   -34.6487 -34.6487 -34.6486 -34.6483 -34.6481 -34.6479 -34.6476 -34.6473
   -34.6470 -34.6470 -34.6469 -34.6467 -34.6466 -34.6466 -34.6465 -34.6465
   -34.6463 -34.6462 -34.6462 -34.6460 -34.6458 -34.6439 -25.4765 -25.4764
   -25.4588 -25.4585 -25.4585 -25.4582 -25.4555 -25.4552 -25.4552 -25.4548
   -25.4170 -25.4168 -25.4168 -25.4165 -25.3931 -25.3929 -25.3929 -25.3927
   -25.3894 -25.3893 -25.3783 -25.3783 -25.3600 -25.3600 -25.3534 -25.3533
   -25.3533 -25.3533 -25.3442 -25.3442 -25.3442 -25.3441 -25.3417 -25.3417
   -25.3354 -25.3353 -25.3352 -25.3352 -25.3350 -25.3350 -25.3350 -25.3347
   -25.3314 -25.3314 -25.3232 -25.3230 -25.3230 -25.3228 -25.3108 -25.3107
   -25.3008 -25.3007 -25.2901 -25.2900  -1.8276  -1.6296  -1.1085  -0.9273
    -0.8041  -0.8032  -0.6567  -0.6363  -0.6353  -0.3308  -0.3249  -0.3241
    -0.2709  -0.1924  -0.1915  -0.1701  -0.1091  -0.1082  -0.0560  -0.0154
     0.1116   0.1126   0.1384   0.1396   0.2124   0.2280   0.2287   0.2819
     0.2826   0.2923   0.2936   0.3368   0.4295   0.4310   0.4841   0.4856
     6.4385   6.7449   6.9800   7.0855   7.0856   7.2632   7.2690   7.3154
     7.3158   7.3194   7.3196   7.4299   7.4301   7.4801   7.4809   7.6327
     7.6334   7.7687   7.7696   7.8985   7.9371   7.9401   7.9407   7.9901
     8.0865   8.0870   8.1292   8.1299   8.1695   8.1700   8.4270   8.4273
     8.5142   8.5459   8.5464   8.5470   8.6714   8.7134   8.7138   8.8981
     8.8989   9.0074   9.0080   9.0230   9.0234   9.0505   9.1168   9.1171
     9.1192   9.1197   9.1844   9.3067   9.3070   9.5526   9.6739   9.6746
     9.8039   9.8054   9.8179   9.8181   9.9153   9.9380   9.9641   9.9652
     9.9671   9.9678  10.0238  10.1853  10.1872  10.1887  10.2135  10.5611
    10.5932  10.6155  10.6362  10.6725  10.6744  10.6973  10.8991  10.8998
    10.9249  10.9262  10.9536  10.9548  10.9850  11.0620  11.0672  11.0683
    11.0732  11.1049  11.1060  11.1523  11.1535  11.1999  11.2500  11.2512
    11.2647  11.2651  11.2743  11.4205  11.4758  11.5323  11.5338  11.6076
    11.6106  11.7148  11.7239  11.8925  11.9063  11.9211  11.9955  11.9989
    12.0098  12.0428  12.0454  12.0717  12.0724  12.0827  12.1490  12.1497
    12.5863  12.5869  12.7622  12.7633  12.8117  13.1170

          k =-0.2500-0.4330 0.1957 ( 90083 PWs)   bands (ev):

   -61.1672 -61.1671 -61.1655 -61.1653 -61.1653 -61.1651 -61.1619 -61.1617
   -61.1617 -61.1615 -61.1606 -61.1604 -61.1604 -61.1604 -61.1604 -61.1600
   -61.1599 -61.1598 -34.7048 -34.7047 -34.7028 -34.7027 -34.7022 -34.7021
   -34.7019 -34.7019 -34.7019 -34.7018 -34.7018 -34.7016 -34.7016 -34.7016
   -34.7016 -34.7015 -34.7015 -34.7015 -34.7014 -34.7014 -34.7014 -34.7013
   -34.7012 -34.7012 -34.7011 -34.7011 -34.7010 -34.7010 -34.7009 -34.7009
   -34.7008 -34.7008 -34.7007 -34.7007 -34.7006 -34.7005 -34.7005 -34.7004
   -34.7004 -34.7004 -34.7003 -34.7002 -34.7002 -34.6999 -34.6999 -34.6999
   -34.6995 -34.6993 -34.6991 -34.6990 -34.6990 -34.6989 -34.6988 -34.6988
   -34.6988 -34.6987 -34.6986 -34.6986 -34.6984 -34.6984 -34.6982 -34.6982
   -34.6982 -34.6981 -34.6979 -34.6979 -34.6978 -34.6978 -34.6976 -34.6973
   -34.6958 -34.6955 -34.6692 -34.6689 -34.6673 -34.6667 -34.6663 -34.6663
   -34.6662 -34.6662 -34.6661 -34.6660 -34.6660 -34.6659 -34.6658 -34.6658
   -34.6658 -34.6658 -34.6657 -34.6657 -34.6657 -34.6656 -34.6656 -34.6655
   -34.6655 -34.6654 -34.6653 -34.6653 -34.6653 -34.6652 -34.6652 -34.6651
   -34.6651 -34.6651 -34.6650 -34.6650 -34.6649 -34.6649 -34.6649 -34.6648
   -34.6648 -34.6648 -34.6648 -34.6647 -34.6647 -34.6646 -34.6646 -34.6646
   -34.6645 -34.6645 -34.6644 -34.6643 -34.6643 -34.6642 -34.6641 -34.6641
   -34.6641 -34.6640 -34.6640 -34.6640 -34.6639 -34.6639 -34.6638 -34.6638
   -34.6637 -34.6637 -34.6636 -34.6636 -34.6635 -34.6633 -34.6631 -34.6625
   -34.6611 -34.6607 -34.6524 -34.6504 -34.6502 -34.6501 -34.6499 -34.6498
   -34.6498 -34.6494 -34.6492 -34.6492 -34.6491 -34.6490 -34.6489 -34.6489
   -34.6488 -34.6488 -34.6487 -34.6483 -34.6480 -34.6479 -34.6476 -34.6475
   -34.6475 -34.6471 -34.6468 -34.6467 -34.6466 -34.6464 -34.6464 -34.6463
   -34.6463 -34.6463 -34.6462 -34.6461 -34.6458 -34.6439 -25.4826 -25.4824
   -25.4824 -25.4822 -25.4734 -25.4733 -25.4525 -25.4524 -25.4402 -25.4399
   -25.4398 -25.4397 -25.3730 -25.3730 -25.3728 -25.3727 -25.3686 -25.3683
   -25.3683 -25.3680 -25.3661 -25.3660 -25.3640 -25.3639 -25.3639 -25.3637
   -25.3459 -25.3458 -25.3458 -25.3457 -25.3456 -25.3456 -25.3456 -25.3453
   -25.3425 -25.3422 -25.3422 -25.3419 -25.3391 -25.3389 -25.3389 -25.3389
   -25.3389 -25.3385 -25.3364 -25.3364 -25.3258 -25.3257 -25.3091 -25.3089
   -25.3089 -25.3087 -25.2968 -25.2968  -1.6343  -1.4392  -1.2743  -1.2734
    -1.0875  -1.0865  -0.5523  -0.4143  -0.4132  -0.3589  -0.3581  -0.2720
    -0.2709  -0.2437  -0.0856  -0.0848  -0.0296   0.0040   0.0049   0.0721
     0.0939   0.0948   0.0975   0.0984   0.1497   0.2168   0.2684   0.2694
     0.2990   0.3015   0.3028   0.3825   0.3927   0.3939   0.4110   0.4482
     6.6605   6.6611   6.6810   6.8872   6.8884   6.8891   7.0893   7.1092
     7.1104   7.3790   7.4453   7.4814   7.4823   7.4961   7.6610   7.6616
     7.7265   7.7664   7.7937   7.7944   7.8604   7.8611   7.8711   7.8724
     7.9411   8.0749   8.2442   8.2453   8.3500   8.3510   8.5296   8.5303
     8.5908   8.6240   8.6251   8.6911   8.7936   8.8533   8.8539   8.8904
     8.8911   8.9600   8.9607   9.0059   9.0556   9.0564   9.3404   9.3982
     9.4000   9.4505   9.4514   9.5825   9.6042   9.6657   9.7060   9.7227
     9.7315   9.7827   9.7835   9.8263   9.8419   9.8430   9.8754   9.8765
     9.9215   9.9465   9.9484  10.0769  10.3318  10.3803  10.3826  10.4041
    10.4050  10.5122  10.5130  10.5356  10.5378  10.6331  10.6777  10.7250
    10.7264  10.7568  10.7794  10.9178  10.9190  10.9201  10.9856  10.9878
    10.9897  10.9947  11.0278  11.0298  11.0760  11.1015  11.1021  11.1650
    11.2517  11.2519  11.2576  11.2578  11.3760  11.3765  11.5273  11.5278
    11.6291  11.8900  11.8905  11.9864  12.1775  12.1780  12.1835  12.1843
    12.2137  12.2145  12.2519  12.2522  12.2663  12.2676  12.3439  12.3588
    12.3599  12.4100  12.4453  12.6183  12.6287  12.7714

          k =-0.2500 0.4330-0.1957 ( 90083 PWs)   bands (ev):

   -61.1672 -61.1671 -61.1655 -61.1653 -61.1653 -61.1651 -61.1619 -61.1617
   -61.1617 -61.1615 -61.1607 -61.1604 -61.1604 -61.1603 -61.1603 -61.1601
   -61.1599 -61.1597 -34.7048 -34.7047 -34.7029 -34.7027 -34.7023 -34.7021
   -34.7019 -34.7019 -34.7019 -34.7018 -34.7016 -34.7016 -34.7016 -34.7016
   -34.7015 -34.7015 -34.7014 -34.7014 -34.7014 -34.7014 -34.7014 -34.7014
   -34.7012 -34.7012 -34.7011 -34.7011 -34.7010 -34.7010 -34.7009 -34.7009
   -34.7009 -34.7008 -34.7007 -34.7007 -34.7007 -34.7005 -34.7005 -34.7004
   -34.7004 -34.7003 -34.7003 -34.7002 -34.7000 -34.6999 -34.6999 -34.6998
   -34.6996 -34.6995 -34.6992 -34.6990 -34.6990 -34.6990 -34.6989 -34.6988
   -34.6988 -34.6987 -34.6986 -34.6985 -34.6984 -34.6984 -34.6982 -34.6982
   -34.6981 -34.6981 -34.6980 -34.6979 -34.6978 -34.6978 -34.6975 -34.6973
   -34.6957 -34.6956 -34.6692 -34.6689 -34.6673 -34.6667 -34.6664 -34.6663
   -34.6662 -34.6661 -34.6661 -34.6660 -34.6660 -34.6659 -34.6658 -34.6658
   -34.6658 -34.6658 -34.6657 -34.6657 -34.6657 -34.6656 -34.6656 -34.6655
   -34.6655 -34.6654 -34.6653 -34.6653 -34.6653 -34.6653 -34.6652 -34.6651
   -34.6651 -34.6651 -34.6650 -34.6650 -34.6649 -34.6649 -34.6649 -34.6648
   -34.6648 -34.6648 -34.6648 -34.6647 -34.6647 -34.6646 -34.6646 -34.6646
   -34.6645 -34.6645 -34.6644 -34.6643 -34.6643 -34.6642 -34.6642 -34.6641
   -34.6641 -34.6640 -34.6640 -34.6640 -34.6639 -34.6639 -34.6638 -34.6638
   -34.6637 -34.6637 -34.6636 -34.6635 -34.6635 -34.6634 -34.6632 -34.6626
   -34.6611 -34.6607 -34.6524 -34.6505 -34.6502 -34.6500 -34.6499 -34.6499
   -34.6498 -34.6494 -34.6493 -34.6492 -34.6491 -34.6490 -34.6489 -34.6489
   -34.6488 -34.6488 -34.6486 -34.6483 -34.6479 -34.6479 -34.6476 -34.6475
   -34.6475 -34.6471 -34.6467 -34.6467 -34.6466 -34.6465 -34.6464 -34.6463
   -34.6463 -34.6463 -34.6462 -34.6460 -34.6459 -34.6439 -25.4827 -25.4824
   -25.4824 -25.4822 -25.4733 -25.4732 -25.4526 -25.4525 -25.4400 -25.4399
   -25.4398 -25.4396 -25.3730 -25.3730 -25.3727 -25.3727 -25.3686 -25.3683
   -25.3683 -25.3680 -25.3661 -25.3661 -25.3640 -25.3639 -25.3639 -25.3638
   -25.3461 -25.3458 -25.3458 -25.3457 -25.3456 -25.3456 -25.3456 -25.3453
   -25.3424 -25.3422 -25.3422 -25.3419 -25.3392 -25.3389 -25.3389 -25.3389
   -25.3388 -25.3386 -25.3364 -25.3364 -25.3258 -25.3258 -25.3091 -25.3089
   -25.3089 -25.3087 -25.2968 -25.2967  -1.6343  -1.4391  -1.2743  -1.2734
    -1.0875  -1.0865  -0.5524  -0.4144  -0.4133  -0.3589  -0.3581  -0.2722
    -0.2711  -0.2438  -0.0856  -0.0847  -0.0294   0.0043   0.0051   0.0723
     0.0941   0.0950   0.0976   0.0986   0.1494   0.2165   0.2686   0.2696
     0.2988   0.3014   0.3025   0.3828   0.3924   0.3936   0.4108   0.4485
     6.6603   6.6608   6.6811   6.8876   6.8881   6.8888   7.0898   7.1092
     7.1105   7.3789   7.4451   7.4815   7.4824   7.4962   7.6612   7.6617
     7.7259   7.7659   7.7941   7.7947   7.8607   7.8614   7.8711   7.8725
     7.9418   8.0756   8.2441   8.2450   8.3498   8.3510   8.5299   8.5307
     8.5902   8.6236   8.6246   8.6912   8.7933   8.8527   8.8535   8.8903
     8.8909   8.9598   8.9607   9.0053   9.0560   9.0567   9.3397   9.3981
     9.4002   9.4502   9.4515   9.5819   9.6042   9.6660   9.7064   9.7221
     9.7312   9.7825   9.7837   9.8262   9.8424   9.8433   9.8754   9.8762
     9.9223   9.9461   9.9480  10.0767  10.3317  10.3806  10.3826  10.4042
    10.4051  10.5123  10.5133  10.5360  10.5383  10.6314  10.6784  10.7248
    10.7263  10.7563  10.7789  10.9177  10.9188  10.9196  10.9865  10.9880
    10.9897  10.9964  11.0278  11.0298  11.0778  11.1018  11.1019  11.1652
    11.2519  11.2525  11.2574  11.2577  11.3764  11.3768  11.5275  11.5280
    11.6283  11.8897  11.8903  11.9863  12.1776  12.1785  12.1830  12.1837
    12.2143  12.2147  12.2515  12.2528  12.2670  12.2672  12.3437  12.3586
    12.3594  12.4104  12.4452  12.6187  12.6286  12.7708

          k = 0.2500-0.4330-0.1957 ( 90083 PWs)   bands (ev):

   -61.1672 -61.1671 -61.1655 -61.1653 -61.1653 -61.1651 -61.1619 -61.1617
   -61.1617 -61.1615 -61.1607 -61.1604 -61.1604 -61.1603 -61.1603 -61.1601
   -61.1599 -61.1597 -34.7048 -34.7047 -34.7029 -34.7027 -34.7023 -34.7021
   -34.7019 -34.7019 -34.7019 -34.7018 -34.7016 -34.7016 -34.7016 -34.7016
   -34.7015 -34.7015 -34.7015 -34.7014 -34.7014 -34.7014 -34.7014 -34.7014
   -34.7012 -34.7012 -34.7011 -34.7011 -34.7010 -34.7010 -34.7009 -34.7009
   -34.7009 -34.7008 -34.7007 -34.7007 -34.7007 -34.7005 -34.7005 -34.7004
   -34.7004 -34.7003 -34.7003 -34.7002 -34.7000 -34.6999 -34.6999 -34.6998
   -34.6996 -34.6995 -34.6992 -34.6990 -34.6990 -34.6990 -34.6989 -34.6988
   -34.6988 -34.6987 -34.6986 -34.6985 -34.6984 -34.6984 -34.6982 -34.6982
   -34.6981 -34.6981 -34.6980 -34.6979 -34.6978 -34.6978 -34.6975 -34.6973
   -34.6957 -34.6956 -34.6692 -34.6689 -34.6673 -34.6667 -34.6664 -34.6663
   -34.6662 -34.6661 -34.6661 -34.6661 -34.6660 -34.6659 -34.6658 -34.6658
   -34.6658 -34.6657 -34.6657 -34.6657 -34.6657 -34.6656 -34.6656 -34.6655
   -34.6655 -34.6654 -34.6653 -34.6653 -34.6653 -34.6652 -34.6652 -34.6651
   -34.6651 -34.6651 -34.6650 -34.6650 -34.6649 -34.6649 -34.6649 -34.6648
   -34.6648 -34.6648 -34.6648 -34.6647 -34.6647 -34.6646 -34.6646 -34.6646
   -34.6645 -34.6645 -34.6644 -34.6643 -34.6643 -34.6643 -34.6642 -34.6641
   -34.6641 -34.6640 -34.6640 -34.6640 -34.6639 -34.6639 -34.6638 -34.6638
   -34.6637 -34.6636 -34.6636 -34.6635 -34.6635 -34.6634 -34.6632 -34.6626
   -34.6611 -34.6607 -34.6524 -34.6505 -34.6502 -34.6500 -34.6499 -34.6498
   -34.6498 -34.6494 -34.6493 -34.6492 -34.6491 -34.6490 -34.6489 -34.6489
   -34.6488 -34.6488 -34.6486 -34.6483 -34.6479 -34.6479 -34.6477 -34.6475
   -34.6475 -34.6471 -34.6467 -34.6467 -34.6466 -34.6465 -34.6464 -34.6463
   -34.6463 -34.6463 -34.6462 -34.6460 -34.6459 -34.6439 -25.4827 -25.4824
   -25.4824 -25.4822 -25.4733 -25.4732 -25.4526 -25.4525 -25.4400 -25.4399
   -25.4398 -25.4396 -25.3730 -25.3730 -25.3727 -25.3727 -25.3686 -25.3683
   -25.3683 -25.3680 -25.3661 -25.3661 -25.3640 -25.3639 -25.3639 -25.3638
   -25.3461 -25.3458 -25.3458 -25.3457 -25.3456 -25.3456 -25.3456 -25.3453
   -25.3424 -25.3422 -25.3422 -25.3419 -25.3392 -25.3389 -25.3389 -25.3389
   -25.3388 -25.3386 -25.3364 -25.3364 -25.3258 -25.3258 -25.3091 -25.3089
   -25.3089 -25.3087 -25.2968 -25.2967  -1.6343  -1.4391  -1.2743  -1.2734
    -1.0875  -1.0865  -0.5524  -0.4144  -0.4133  -0.3589  -0.3581  -0.2722
    -0.2711  -0.2438  -0.0856  -0.0847  -0.0294   0.0042   0.0051   0.0723
     0.0941   0.0950   0.0976   0.0986   0.1494   0.2165   0.2686   0.2696
     0.2988   0.3014   0.3025   0.3828   0.3924   0.3937   0.4108   0.4485
     6.6603   6.6608   6.6811   6.8876   6.8881   6.8888   7.0898   7.1092
     7.1105   7.3789   7.4451   7.4815   7.4824   7.4962   7.6612   7.6617
     7.7259   7.7659   7.7941   7.7947   7.8607   7.8614   7.8711   7.8725
     7.9418   8.0756   8.2440   8.2451   8.3499   8.3509   8.5300   8.5307
     8.5902   8.6235   8.6246   8.6912   8.7933   8.8528   8.8534   8.8903
     8.8910   8.9598   8.9606   9.0053   9.0559   9.0568   9.3397   9.3982
     9.4001   9.4504   9.4513   9.5819   9.6042   9.6660   9.7064   9.7221
     9.7312   9.7827   9.7835   9.8262   9.8423   9.8434   9.8752   9.8764
     9.9223   9.9461   9.9480  10.0767  10.3317  10.3805  10.3827  10.4042
    10.4051  10.5124  10.5132  10.5361  10.5382  10.6314  10.6784  10.7249
    10.7262  10.7563  10.7789  10.9176  10.9188  10.9197  10.9865  10.9879
    10.9897  10.9964  11.0277  11.0298  11.0778  11.1016  11.1021  11.1652
    11.2520  11.2523  11.2575  11.2577  11.3763  11.3768  11.5275  11.5280
    11.6283  11.8897  11.8902  11.9864  12.1776  12.1785  12.1830  12.1837
    12.2141  12.2148  12.2520  12.2523  12.2665  12.2678  12.3437  12.3586
    12.3593  12.4104  12.4452  12.6187  12.6285  12.7708

          k = 0.5000-0.0000 0.1957 ( 90083 PWs)   bands (ev):

   -61.1672 -61.1671 -61.1653 -61.1653 -61.1653 -61.1653 -61.1618 -61.1617
   -61.1617 -61.1617 -61.1605 -61.1604 -61.1604 -61.1604 -61.1603 -61.1603
   -61.1599 -61.1597 -34.7048 -34.7047 -34.7029 -34.7026 -34.7023 -34.7021
   -34.7019 -34.7019 -34.7019 -34.7018 -34.7017 -34.7016 -34.7016 -34.7016
   -34.7015 -34.7015 -34.7015 -34.7015 -34.7014 -34.7014 -34.7014 -34.7014
   -34.7013 -34.7012 -34.7012 -34.7011 -34.7010 -34.7010 -34.7010 -34.7009
   -34.7009 -34.7008 -34.7007 -34.7007 -34.7006 -34.7005 -34.7005 -34.7004
   -34.7004 -34.7003 -34.7003 -34.7002 -34.7001 -34.6999 -34.6999 -34.6998
   -34.6995 -34.6995 -34.6992 -34.6990 -34.6990 -34.6990 -34.6988 -34.6988
   -34.6988 -34.6987 -34.6986 -34.6986 -34.6985 -34.6984 -34.6982 -34.6982
   -34.6982 -34.6981 -34.6979 -34.6979 -34.6978 -34.6978 -34.6975 -34.6973
   -34.6957 -34.6956 -34.6692 -34.6689 -34.6673 -34.6667 -34.6664 -34.6663
   -34.6662 -34.6662 -34.6661 -34.6660 -34.6660 -34.6659 -34.6658 -34.6658
   -34.6658 -34.6658 -34.6657 -34.6657 -34.6657 -34.6656 -34.6656 -34.6655
   -34.6655 -34.6654 -34.6653 -34.6653 -34.6653 -34.6652 -34.6652 -34.6651
   -34.6651 -34.6651 -34.6650 -34.6650 -34.6649 -34.6649 -34.6649 -34.6648
   -34.6648 -34.6648 -34.6648 -34.6647 -34.6647 -34.6647 -34.6646 -34.6645
   -34.6645 -34.6645 -34.6644 -34.6643 -34.6643 -34.6642 -34.6642 -34.6641
   -34.6641 -34.6640 -34.6640 -34.6640 -34.6639 -34.6639 -34.6638 -34.6638
   -34.6637 -34.6637 -34.6636 -34.6636 -34.6635 -34.6633 -34.6632 -34.6626
   -34.6611 -34.6607 -34.6524 -34.6504 -34.6502 -34.6501 -34.6499 -34.6498
   -34.6498 -34.6495 -34.6493 -34.6491 -34.6491 -34.6490 -34.6489 -34.6489
   -34.6489 -34.6488 -34.6487 -34.6483 -34.6480 -34.6479 -34.6476 -34.6475
   -34.6475 -34.6471 -34.6468 -34.6467 -34.6467 -34.6465 -34.6464 -34.6463
   -34.6463 -34.6463 -34.6462 -34.6461 -34.6458 -34.6439 -25.4825 -25.4824
   -25.4824 -25.4823 -25.4733 -25.4733 -25.4525 -25.4525 -25.4399 -25.4399
   -25.4399 -25.4398 -25.3730 -25.3730 -25.3727 -25.3727 -25.3683 -25.3683
   -25.3683 -25.3682 -25.3661 -25.3661 -25.3639 -25.3639 -25.3639 -25.3639
   -25.3459 -25.3458 -25.3457 -25.3457 -25.3456 -25.3456 -25.3456 -25.3456
   -25.3422 -25.3422 -25.3422 -25.3421 -25.3389 -25.3389 -25.3389 -25.3389
   -25.3388 -25.3388 -25.3364 -25.3364 -25.3258 -25.3257 -25.3090 -25.3089
   -25.3089 -25.3088 -25.2968 -25.2968  -1.6343  -1.4392  -1.2739  -1.2738
    -1.0871  -1.0870  -0.5523  -0.4139  -0.4137  -0.3586  -0.3584  -0.2716
    -0.2715  -0.2438  -0.0853  -0.0851  -0.0295   0.0044   0.0048   0.0722
     0.0942   0.0946   0.0979   0.0981   0.1496   0.2167   0.2689   0.2691
     0.2991   0.3017   0.3021   0.3827   0.3930   0.3934   0.4109   0.4484
     6.6604   6.6609   6.6810   6.8873   6.8884   6.8889   7.0895   7.1097
     7.1099   7.3789   7.4452   7.4818   7.4820   7.4962   7.6612   7.6615
     7.7262   7.7662   7.7941   7.7944   7.8606   7.8612   7.8717   7.8718
     7.9414   8.0753   8.2445   8.2449   8.3499   8.3510   8.5298   8.5305
     8.5905   8.6240   8.6247   8.6912   8.7934   8.8530   8.8537   8.8906
     8.8908   8.9599   8.9607   9.0056   9.0559   9.0565   9.3401   9.3985
     9.3998   9.4502   9.4516   9.5822   9.6042   9.6659   9.7062   9.7224
     9.7313   9.7824   9.7838   9.8262   9.8424   9.8429   9.8756   9.8761
     9.9219   9.9469   9.9476  10.0768  10.3317  10.3810  10.3821  10.4045
    10.4048  10.5123  10.5131  10.5361  10.5377  10.6322  10.6781  10.7251
    10.7262  10.7565  10.7791  10.9181  10.9189  10.9195  10.9861  10.9885
    10.9891  10.9955  11.0288  11.0289  11.0768  11.1017  11.1020  11.1651
    11.2517  11.2524  11.2574  11.2578  11.3762  11.3767  11.5276  11.5277
    11.6287  11.8899  11.8903  11.9863  12.1774  12.1785  12.1835  12.1837
    12.2142  12.2143  12.2514  12.2529  12.2668  12.2673  12.3440  12.3588
    12.3594  12.4102  12.4452  12.6185  12.6287  12.7711

          k =-0.5000 0.0000 0.1957 ( 90083 PWs)   bands (ev):

   -61.1672 -61.1671 -61.1653 -61.1653 -61.1653 -61.1653 -61.1618 -61.1617
   -61.1617 -61.1617 -61.1605 -61.1604 -61.1604 -61.1604 -61.1603 -61.1603
   -61.1599 -61.1597 -34.7048 -34.7047 -34.7029 -34.7026 -34.7023 -34.7021
   -34.7019 -34.7019 -34.7019 -34.7018 -34.7017 -34.7016 -34.7016 -34.7016
   -34.7015 -34.7015 -34.7015 -34.7015 -34.7014 -34.7014 -34.7014 -34.7014
   -34.7013 -34.7012 -34.7012 -34.7011 -34.7010 -34.7010 -34.7010 -34.7009
   -34.7009 -34.7008 -34.7007 -34.7007 -34.7006 -34.7005 -34.7005 -34.7004
   -34.7004 -34.7003 -34.7003 -34.7002 -34.7001 -34.6999 -34.6999 -34.6998
   -34.6995 -34.6995 -34.6992 -34.6990 -34.6990 -34.6990 -34.6988 -34.6988
   -34.6988 -34.6987 -34.6986 -34.6986 -34.6985 -34.6984 -34.6982 -34.6982
   -34.6982 -34.6981 -34.6979 -34.6979 -34.6978 -34.6978 -34.6975 -34.6973
   -34.6957 -34.6956 -34.6692 -34.6689 -34.6673 -34.6667 -34.6664 -34.6663
   -34.6662 -34.6662 -34.6661 -34.6660 -34.6660 -34.6659 -34.6658 -34.6658
   -34.6658 -34.6657 -34.6657 -34.6657 -34.6657 -34.6656 -34.6656 -34.6655
   -34.6655 -34.6654 -34.6653 -34.6653 -34.6653 -34.6653 -34.6652 -34.6651
   -34.6651 -34.6650 -34.6650 -34.6650 -34.6649 -34.6649 -34.6649 -34.6648
   -34.6648 -34.6648 -34.6648 -34.6647 -34.6647 -34.6647 -34.6646 -34.6645
   -34.6645 -34.6645 -34.6644 -34.6643 -34.6643 -34.6642 -34.6641 -34.6641
   -34.6641 -34.6641 -34.6640 -34.6640 -34.6639 -34.6639 -34.6638 -34.6637
   -34.6637 -34.6637 -34.6636 -34.6636 -34.6635 -34.6633 -34.6632 -34.6626
   -34.6611 -34.6607 -34.6524 -34.6504 -34.6502 -34.6501 -34.6499 -34.6498
   -34.6498 -34.6495 -34.6493 -34.6491 -34.6491 -34.6490 -34.6489 -34.6489
   -34.6489 -34.6488 -34.6486 -34.6483 -34.6480 -34.6479 -34.6476 -34.6475
   -34.6475 -34.6471 -34.6468 -34.6467 -34.6467 -34.6465 -34.6464 -34.6463
   -34.6463 -34.6463 -34.6462 -34.6461 -34.6458 -34.6439 -25.4825 -25.4824
   -25.4824 -25.4823 -25.4733 -25.4733 -25.4525 -25.4525 -25.4399 -25.4399
   -25.4399 -25.4398 -25.3730 -25.3730 -25.3727 -25.3727 -25.3683 -25.3683
   -25.3683 -25.3682 -25.3661 -25.3661 -25.3639 -25.3639 -25.3639 -25.3639
   -25.3459 -25.3458 -25.3457 -25.3457 -25.3456 -25.3456 -25.3456 -25.3456
   -25.3422 -25.3422 -25.3422 -25.3421 -25.3389 -25.3389 -25.3389 -25.3389
   -25.3388 -25.3388 -25.3364 -25.3364 -25.3258 -25.3257 -25.3090 -25.3089
   -25.3089 -25.3088 -25.2968 -25.2968  -1.6343  -1.4392  -1.2739  -1.2738
    -1.0871  -1.0870  -0.5523  -0.4139  -0.4137  -0.3586  -0.3584  -0.2716
    -0.2715  -0.2438  -0.0853  -0.0851  -0.0295   0.0044   0.0048   0.0722
     0.0943   0.0946   0.0979   0.0981   0.1495   0.2167   0.2689   0.2691
     0.2991   0.3018   0.3021   0.3826   0.3930   0.3934   0.4109   0.4484
     6.6605   6.6609   6.6810   6.8874   6.8883   6.8889   7.0895   7.1098
     7.1099   7.3789   7.4452   7.4818   7.4820   7.4962   7.6612   7.6615
     7.7262   7.7662   7.7940   7.7945   7.8606   7.8612   7.8716   7.8719
     7.9414   8.0752   8.2442   8.2451   8.3503   8.3506   8.5298   8.5305
     8.5905   8.6239   8.6247   8.6912   8.7934   8.8533   8.8534   8.8905
     8.8909   8.9602   8.9604   9.0056   9.0557   9.0566   9.3400   9.3988
     9.3995   9.4508   9.4510   9.5822   9.6042   9.6659   9.7062   9.7224
     9.7313   9.7828   9.7835   9.8262   9.8421   9.8432   9.8753   9.8764
     9.9219   9.9468   9.9477  10.0768  10.3317  10.3806  10.3825  10.4044
    10.4048  10.5127  10.5127  10.5366  10.5373  10.6322  10.6781  10.7253
    10.7260  10.7565  10.7791  10.9179  10.9189  10.9198  10.9862  10.9887
    10.9888  10.9956  11.0285  11.0291  11.0769  11.1015  11.1021  11.1651
    11.2519  11.2521  11.2574  11.2578  11.3761  11.3768  11.5275  11.5278
    11.6287  11.8900  11.8902  11.9864  12.1779  12.1781  12.1833  12.1838
    12.2138  12.2146  12.2520  12.2522  12.2662  12.2680  12.3440  12.3589
    12.3592  12.4102  12.4452  12.6185  12.6286  12.7711

          k =-0.2500 0.1443 0.1957 ( 89997 PWs)   bands (ev):

   -61.1682 -61.1682 -61.1646 -61.1646 -61.1633 -61.1632 -61.1632 -61.1632
   -61.1615 -61.1614 -61.1614 -61.1614 -61.1609 -61.1609 -61.1596 -61.1596
   -61.1596 -61.1595 -34.7048 -34.7047 -34.7029 -34.7027 -34.7024 -34.7021
   -34.7021 -34.7021 -34.7019 -34.7018 -34.7018 -34.7017 -34.7017 -34.7017
   -34.7017 -34.7017 -34.7016 -34.7015 -34.7014 -34.7014 -34.7014 -34.7013
   -34.7013 -34.7013 -34.7012 -34.7012 -34.7011 -34.7011 -34.7011 -34.7010
   -34.7009 -34.7008 -34.7007 -34.7007 -34.7006 -34.7004 -34.7001 -34.7000
   -34.7000 -34.6999 -34.6999 -34.6997 -34.6995 -34.6995 -34.6995 -34.6994
   -34.6994 -34.6993 -34.6992 -34.6990 -34.6990 -34.6990 -34.6988 -34.6988
   -34.6988 -34.6987 -34.6987 -34.6986 -34.6986 -34.6986 -34.6986 -34.6983
   -34.6983 -34.6983 -34.6982 -34.6981 -34.6979 -34.6977 -34.6976 -34.6974
   -34.6958 -34.6956 -34.6692 -34.6689 -34.6673 -34.6668 -34.6665 -34.6664
   -34.6662 -34.6662 -34.6661 -34.6660 -34.6659 -34.6658 -34.6657 -34.6657
   -34.6657 -34.6656 -34.6656 -34.6656 -34.6656 -34.6655 -34.6655 -34.6655
   -34.6655 -34.6654 -34.6654 -34.6654 -34.6653 -34.6652 -34.6652 -34.6652
   -34.6651 -34.6651 -34.6651 -34.6650 -34.6650 -34.6650 -34.6649 -34.6649
   -34.6649 -34.6648 -34.6648 -34.6648 -34.6647 -34.6647 -34.6646 -34.6646
   -34.6646 -34.6645 -34.6645 -34.6644 -34.6644 -34.6643 -34.6642 -34.6641
   -34.6640 -34.6640 -34.6640 -34.6639 -34.6639 -34.6638 -34.6638 -34.6637
   -34.6637 -34.6636 -34.6636 -34.6635 -34.6634 -34.6633 -34.6631 -34.6626
   -34.6611 -34.6607 -34.6524 -34.6505 -34.6504 -34.6500 -34.6497 -34.6497
   -34.6495 -34.6494 -34.6494 -34.6493 -34.6491 -34.6491 -34.6490 -34.6489
   -34.6487 -34.6487 -34.6486 -34.6484 -34.6481 -34.6479 -34.6476 -34.6473
   -34.6470 -34.6470 -34.6469 -34.6467 -34.6466 -34.6466 -34.6465 -34.6465
   -34.6463 -34.6462 -34.6462 -34.6460 -34.6458 -34.6439 -25.4765 -25.4764
   -25.4588 -25.4585 -25.4585 -25.4582 -25.4555 -25.4552 -25.4552 -25.4548
   -25.4170 -25.4168 -25.4168 -25.4165 -25.3931 -25.3929 -25.3929 -25.3927
   -25.3894 -25.3893 -25.3783 -25.3783 -25.3600 -25.3600 -25.3534 -25.3533
   -25.3533 -25.3533 -25.3442 -25.3442 -25.3442 -25.3441 -25.3417 -25.3417
   -25.3354 -25.3353 -25.3352 -25.3352 -25.3350 -25.3350 -25.3350 -25.3347
   -25.3314 -25.3314 -25.3232 -25.3230 -25.3230 -25.3228 -25.3108 -25.3107
   -25.3008 -25.3007 -25.2901 -25.2900  -1.8276  -1.6296  -1.1085  -0.9272
    -0.8041  -0.8032  -0.6567  -0.6363  -0.6353  -0.3308  -0.3249  -0.3242
    -0.2709  -0.1924  -0.1915  -0.1701  -0.1091  -0.1081  -0.0560  -0.0154
     0.1116   0.1126   0.1384   0.1395   0.2124   0.2281   0.2288   0.2819
     0.2826   0.2923   0.2937   0.3367   0.4295   0.4310   0.4841   0.4856
     6.4385   6.7450   6.9799   7.0853   7.0854   7.2629   7.2691   7.3157
     7.3160   7.3196   7.3198   7.4297   7.4299   7.4803   7.4814   7.6326
     7.6335   7.7688   7.7695   7.8986   7.9377   7.9392   7.9399   7.9900
     8.0863   8.0872   8.1292   8.1298   8.1688   8.1697   8.4283   8.4289
     8.5142   8.5461   8.5464   8.5470   8.6701   8.7131   8.7137   8.8987
     8.8993   9.0070   9.0079   9.0223   9.0235   9.0506   9.1164   9.1169
     9.1195   9.1198   9.1851   9.3062   9.3067   9.5525   9.6745   9.6749
     9.8048   9.8056   9.8177   9.8179   9.9153   9.9380   9.9635   9.9646
     9.9668   9.9676  10.0238  10.1857  10.1874  10.1888  10.2134  10.5611
    10.5932  10.6155  10.6362  10.6724  10.6745  10.6971  10.8989  10.8996
    10.9248  10.9262  10.9541  10.9547  10.9850  11.0622  11.0666  11.0680
    11.0735  11.1057  11.1066  11.1523  11.1532  11.1999  11.2504  11.2511
    11.2640  11.2648  11.2744  11.4205  11.4758  11.5330  11.5337  11.6070
    11.6107  11.7148  11.7238  11.8925  11.9063  11.9212  11.9959  11.9981
    12.0107  12.0427  12.0458  12.0720  12.0730  12.0821  12.1487  12.1493
    12.5860  12.5870  12.7625  12.7632  12.8117  13.1169

          k =-0.2500-0.1443-0.1957 ( 89997 PWs)   bands (ev):

   -61.1682 -61.1682 -61.1646 -61.1646 -61.1633 -61.1632 -61.1632 -61.1632
   -61.1615 -61.1614 -61.1614 -61.1614 -61.1609 -61.1609 -61.1596 -61.1596
   -61.1596 -61.1595 -34.7049 -34.7047 -34.7029 -34.7027 -34.7023 -34.7022
   -34.7021 -34.7020 -34.7019 -34.7018 -34.7018 -34.7018 -34.7017 -34.7017
   -34.7017 -34.7016 -34.7016 -34.7015 -34.7015 -34.7014 -34.7014 -34.7013
   -34.7013 -34.7013 -34.7012 -34.7011 -34.7011 -34.7011 -34.7011 -34.7010
   -34.7009 -34.7008 -34.7007 -34.7007 -34.7007 -34.7003 -34.7001 -34.7000
   -34.7000 -34.6999 -34.6999 -34.6998 -34.6996 -34.6995 -34.6994 -34.6994
   -34.6993 -34.6993 -34.6991 -34.6990 -34.6990 -34.6990 -34.6988 -34.6988
   -34.6987 -34.6987 -34.6987 -34.6986 -34.6986 -34.6986 -34.6985 -34.6983
   -34.6983 -34.6982 -34.6982 -34.6981 -34.6979 -34.6979 -34.6977 -34.6974
   -34.6958 -34.6956 -34.6692 -34.6689 -34.6673 -34.6668 -34.6665 -34.6664
   -34.6662 -34.6662 -34.6661 -34.6660 -34.6659 -34.6658 -34.6657 -34.6657
   -34.6657 -34.6656 -34.6656 -34.6656 -34.6656 -34.6655 -34.6655 -34.6655
   -34.6655 -34.6654 -34.6654 -34.6653 -34.6653 -34.6652 -34.6652 -34.6652
   -34.6651 -34.6651 -34.6650 -34.6650 -34.6650 -34.6650 -34.6650 -34.6649
   -34.6649 -34.6648 -34.6648 -34.6647 -34.6647 -34.6647 -34.6646 -34.6646
   -34.6646 -34.6646 -34.6645 -34.6644 -34.6644 -34.6642 -34.6642 -34.6641
   -34.6640 -34.6640 -34.6640 -34.6639 -34.6639 -34.6638 -34.6638 -34.6637
   -34.6637 -34.6636 -34.6636 -34.6635 -34.6634 -34.6632 -34.6631 -34.6626
   -34.6611 -34.6607 -34.6524 -34.6505 -34.6504 -34.6500 -34.6498 -34.6497
   -34.6495 -34.6494 -34.6494 -34.6493 -34.6491 -34.6491 -34.6490 -34.6489
   -34.6487 -34.6487 -34.6487 -34.6483 -34.6481 -34.6479 -34.6476 -34.6473
   -34.6470 -34.6470 -34.6470 -34.6468 -34.6466 -34.6466 -34.6465 -34.6464
   -34.6463 -34.6462 -34.6462 -34.6461 -34.6458 -34.6439 -25.4764 -25.4764
   -25.4588 -25.4585 -25.4585 -25.4582 -25.4556 -25.4552 -25.4552 -25.4548
   -25.4172 -25.4168 -25.4168 -25.4166 -25.3930 -25.3929 -25.3929 -25.3927
   -25.3893 -25.3892 -25.3783 -25.3783 -25.3600 -25.3600 -25.3534 -25.3533
   -25.3533 -25.3533 -25.3442 -25.3442 -25.3442 -25.3441 -25.3417 -25.3417
   -25.3355 -25.3352 -25.3352 -25.3350 -25.3350 -25.3350 -25.3350 -25.3348
   -25.3315 -25.3314 -25.3231 -25.3230 -25.3230 -25.3228 -25.3109 -25.3108
   -25.3007 -25.3006 -25.2901 -25.2901  -1.8276  -1.6296  -1.1087  -0.9274
    -0.8039  -0.8030  -0.6567  -0.6361  -0.6352  -0.3307  -0.3249  -0.3240
    -0.2707  -0.1923  -0.1914  -0.1705  -0.1093  -0.1083  -0.0564  -0.0152
     0.1113   0.1124   0.1383   0.1395   0.2128   0.2280   0.2288   0.2819
     0.2826   0.2923   0.2935   0.3372   0.4295   0.4310   0.4841   0.4856
     6.4385   6.7454   6.9804   7.0852   7.0853   7.2627   7.2690   7.3155
     7.3158   7.3194   7.3197   7.4296   7.4298   7.4805   7.4814   7.6327
     7.6334   7.7687   7.7696   7.8983   7.9376   7.9393   7.9399   7.9896
     8.0865   8.0870   8.1292   8.1298   8.1691   8.1695   8.4284   8.4287
     8.5135   8.5461   8.5465   8.5470   8.6701   8.7134   8.7138   8.8989
     8.8997   9.0075   9.0082   9.0228   9.0232   9.0498   9.1166   9.1169
     9.1195   9.1202   9.1856   9.3064   9.3067   9.5531   9.6743   9.6750
     9.8053   9.8068   9.8177   9.8179   9.9157   9.9370   9.9638   9.9648
     9.9674   9.9683  10.0227  10.1859  10.1866  10.1887  10.2129  10.5597
    10.5938  10.6161  10.6348  10.6725  10.6744  10.6978  10.8984  10.8991
    10.9245  10.9258  10.9535  10.9547  10.9861  11.0620  11.0665  11.0679
    11.0748  11.1057  11.1070  11.1511  11.1523  11.2003  11.2494  11.2507
    11.2647  11.2652  11.2746  11.4183  11.4735  11.5329  11.5344  11.6073
    11.6125  11.7159  11.7236  11.8929  11.9061  11.9223  11.9943  11.9978
    12.0116  12.0419  12.0443  12.0727  12.0734  12.0831  12.1486  12.1494
    12.5862  12.5868  12.7621  12.7633  12.8119  13.1172

          k = 0.2500 0.1443-0.1957 ( 89997 PWs)   bands (ev):

   -61.1682 -61.1682 -61.1646 -61.1646 -61.1633 -61.1632 -61.1632 -61.1632
   -61.1615 -61.1614 -61.1614 -61.1614 -61.1609 -61.1609 -61.1596 -61.1596
   -61.1596 -61.1595 -34.7049 -34.7047 -34.7029 -34.7027 -34.7023 -34.7022
   -34.7021 -34.7020 -34.7019 -34.7018 -34.7018 -34.7018 -34.7017 -34.7017
   -34.7017 -34.7016 -34.7016 -34.7015 -34.7015 -34.7014 -34.7014 -34.7013
   -34.7013 -34.7013 -34.7012 -34.7011 -34.7011 -34.7011 -34.7011 -34.7011
   -34.7009 -34.7008 -34.7007 -34.7007 -34.7007 -34.7003 -34.7001 -34.7000
   -34.7000 -34.6999 -34.6999 -34.6998 -34.6996 -34.6995 -34.6994 -34.6994
   -34.6993 -34.6993 -34.6991 -34.6990 -34.6990 -34.6990 -34.6988 -34.6988
   -34.6987 -34.6987 -34.6987 -34.6986 -34.6986 -34.6986 -34.6985 -34.6983
   -34.6983 -34.6982 -34.6982 -34.6981 -34.6979 -34.6979 -34.6977 -34.6974
   -34.6958 -34.6956 -34.6692 -34.6689 -34.6673 -34.6668 -34.6665 -34.6664
   -34.6662 -34.6662 -34.6661 -34.6660 -34.6659 -34.6658 -34.6657 -34.6657
   -34.6657 -34.6656 -34.6656 -34.6656 -34.6656 -34.6655 -34.6655 -34.6655
   -34.6654 -34.6654 -34.6654 -34.6653 -34.6653 -34.6652 -34.6652 -34.6652
   -34.6651 -34.6651 -34.6650 -34.6650 -34.6650 -34.6650 -34.6650 -34.6649
   -34.6649 -34.6648 -34.6648 -34.6648 -34.6647 -34.6647 -34.6646 -34.6646
   -34.6646 -34.6646 -34.6645 -34.6644 -34.6644 -34.6642 -34.6642 -34.6641
   -34.6641 -34.6640 -34.6640 -34.6639 -34.6639 -34.6638 -34.6638 -34.6637
   -34.6637 -34.6636 -34.6636 -34.6635 -34.6634 -34.6632 -34.6631 -34.6626
   -34.6611 -34.6607 -34.6524 -34.6505 -34.6504 -34.6500 -34.6498 -34.6497
   -34.6495 -34.6494 -34.6494 -34.6493 -34.6491 -34.6491 -34.6490 -34.6490
   -34.6487 -34.6487 -34.6487 -34.6483 -34.6481 -34.6479 -34.6476 -34.6473
   -34.6470 -34.6470 -34.6470 -34.6468 -34.6466 -34.6466 -34.6465 -34.6464
   -34.6463 -34.6462 -34.6462 -34.6461 -34.6458 -34.6439 -25.4764 -25.4764
   -25.4588 -25.4585 -25.4585 -25.4582 -25.4556 -25.4552 -25.4552 -25.4548
   -25.4172 -25.4168 -25.4168 -25.4166 -25.3930 -25.3929 -25.3929 -25.3927
   -25.3893 -25.3892 -25.3783 -25.3783 -25.3600 -25.3600 -25.3534 -25.3533
   -25.3533 -25.3533 -25.3442 -25.3442 -25.3442 -25.3441 -25.3417 -25.3417
   -25.3355 -25.3352 -25.3352 -25.3350 -25.3350 -25.3350 -25.3350 -25.3348
   -25.3315 -25.3314 -25.3231 -25.3230 -25.3230 -25.3228 -25.3109 -25.3108
   -25.3007 -25.3006 -25.2901 -25.2901  -1.8276  -1.6296  -1.1087  -0.9274
    -0.8040  -0.8030  -0.6567  -0.6361  -0.6352  -0.3307  -0.3249  -0.3240
    -0.2707  -0.1923  -0.1914  -0.1705  -0.1093  -0.1083  -0.0563  -0.0152
     0.1113   0.1124   0.1383   0.1395   0.2127   0.2280   0.2288   0.2819
     0.2827   0.2923   0.2935   0.3372   0.4295   0.4310   0.4841   0.4856
     6.4385   6.7453   6.9805   7.0853   7.0855   7.2628   7.2691   7.3153
     7.3154   7.3193   7.3195   7.4298   7.4300   7.4801   7.4812   7.6325
     7.6335   7.7687   7.7695   7.8982   7.9370   7.9400   7.9408   7.9896
     8.0862   8.0871   8.1293   8.1299   8.1694   8.1702   8.4268   8.4275
     8.5136   8.5459   8.5465   8.5470   8.6715   8.7135   8.7141   8.8986
     8.8992   9.0076   9.0085   9.0227   9.0240   9.0497   9.1167   9.1170
     9.1197   9.1202   9.1849   9.3066   9.3072   9.5532   9.6740   9.6744
     9.8052   9.8059   9.8179   9.8181   9.9156   9.9370   9.9645   9.9650
     9.9675   9.9690  10.0227  10.1856  10.1864  10.1885  10.2129  10.5597
    10.5937  10.6161  10.6349  10.6724  10.6744  10.6979  10.8986  10.8993
    10.9245  10.9258  10.9536  10.9543  10.9861  11.0618  11.0668  11.0681
    11.0751  11.1052  11.1062  11.1515  11.1523  11.2001  11.2495  11.2502
    11.2650  11.2658  11.2747  11.4183  11.4735  11.5330  11.5337  11.6077
    11.6125  11.7159  11.7236  11.8931  11.9061  11.9223  11.9952  11.9975
    12.0107  12.0415  12.0445  12.0722  12.0729  12.0837  12.1491  12.1497
    12.5861  12.5871  12.7623  12.7630  12.8117  13.1172

          k = 0.0000-0.2887 0.1957 ( 89997 PWs)   bands (ev):

   -61.1682 -61.1682 -61.1646 -61.1646 -61.1633 -61.1632 -61.1632 -61.1632
   -61.1615 -61.1614 -61.1614 -61.1614 -61.1609 -61.1609 -61.1596 -61.1596
   -61.1596 -61.1595 -34.7049 -34.7047 -34.7029 -34.7027 -34.7023 -34.7022
   -34.7021 -34.7020 -34.7019 -34.7018 -34.7018 -34.7017 -34.7017 -34.7017
   -34.7017 -34.7016 -34.7016 -34.7015 -34.7015 -34.7014 -34.7014 -34.7013
   -34.7013 -34.7013 -34.7012 -34.7011 -34.7011 -34.7011 -34.7011 -34.7011
   -34.7009 -34.7008 -34.7008 -34.7007 -34.7006 -34.7003 -34.7002 -34.7000
   -34.7000 -34.6999 -34.6999 -34.6998 -34.6996 -34.6995 -34.6994 -34.6994
   -34.6994 -34.6993 -34.6991 -34.6990 -34.6990 -34.6989 -34.6988 -34.6988
   -34.6987 -34.6987 -34.6987 -34.6986 -34.6986 -34.6986 -34.6985 -34.6983
   -34.6983 -34.6983 -34.6982 -34.6981 -34.6979 -34.6978 -34.6977 -34.6974
   -34.6958 -34.6956 -34.6692 -34.6689 -34.6673 -34.6668 -34.6665 -34.6664
   -34.6662 -34.6662 -34.6661 -34.6660 -34.6659 -34.6658 -34.6657 -34.6657
   -34.6657 -34.6657 -34.6656 -34.6656 -34.6656 -34.6655 -34.6655 -34.6655
   -34.6654 -34.6654 -34.6654 -34.6653 -34.6653 -34.6653 -34.6652 -34.6652
   -34.6651 -34.6651 -34.6651 -34.6650 -34.6650 -34.6650 -34.6650 -34.6649
   -34.6649 -34.6648 -34.6648 -34.6648 -34.6647 -34.6647 -34.6646 -34.6646
   -34.6646 -34.6646 -34.6645 -34.6644 -34.6644 -34.6643 -34.6642 -34.6641
   -34.6641 -34.6640 -34.6639 -34.6639 -34.6639 -34.6638 -34.6638 -34.6637
   -34.6637 -34.6636 -34.6636 -34.6635 -34.6634 -34.6633 -34.6631 -34.6625
   -34.6611 -34.6607 -34.6524 -34.6505 -34.6504 -34.6500 -34.6498 -34.6497
   -34.6495 -34.6494 -34.6494 -34.6493 -34.6491 -34.6491 -34.6490 -34.6490
   -34.6487 -34.6487 -34.6486 -34.6483 -34.6481 -34.6479 -34.6476 -34.6473
   -34.6470 -34.6470 -34.6470 -34.6467 -34.6466 -34.6466 -34.6465 -34.6465
   -34.6463 -34.6462 -34.6462 -34.6461 -34.6458 -34.6439 -25.4765 -25.4764
   -25.4589 -25.4585 -25.4585 -25.4582 -25.4556 -25.4552 -25.4552 -25.4547
   -25.4172 -25.4168 -25.4168 -25.4165 -25.3932 -25.3929 -25.3929 -25.3926
   -25.3893 -25.3893 -25.3783 -25.3783 -25.3600 -25.3600 -25.3534 -25.3533
   -25.3533 -25.3532 -25.3442 -25.3442 -25.3442 -25.3441 -25.3417 -25.3417
   -25.3355 -25.3352 -25.3352 -25.3351 -25.3350 -25.3350 -25.3350 -25.3348
   -25.3314 -25.3314 -25.3230 -25.3230 -25.3230 -25.3230 -25.3108 -25.3108
   -25.3007 -25.3007 -25.2901 -25.2901  -1.8276  -1.6296  -1.1086  -0.9273
    -0.8042  -0.8029  -0.6567  -0.6364  -0.6351  -0.3307  -0.3250  -0.3239
    -0.2708  -0.1925  -0.1913  -0.1703  -0.1091  -0.1083  -0.0562  -0.0153
     0.1116   0.1124   0.1383   0.1395   0.2126   0.2280   0.2288   0.2818
     0.2827   0.2924   0.2935   0.3370   0.4295   0.4310   0.4841   0.4856
     6.4385   6.7452   6.9801   7.0852   7.0854   7.2629   7.2690   7.3155
     7.3159   7.3195   7.3198   7.4296   7.4299   7.4801   7.4817   7.6326
     7.6336   7.7687   7.7696   7.8985   7.9375   7.9391   7.9402   7.9898
     8.0862   8.0873   8.1290   8.1300   8.1690   8.1695   8.4282   8.4289
     8.5138   8.5459   8.5464   8.5473   8.6701   8.7132   8.7139   8.8986
     8.8997   9.0070   9.0083   9.0227   9.0233   9.0502   9.1164   9.1171
     9.1194   9.1201   9.1854   9.3062   9.3068   9.5528   9.6743   9.6751
     9.8052   9.8060   9.8177   9.8178   9.9155   9.9375   9.9635   9.9648
     9.9674   9.9678  10.0233  10.1856  10.1872  10.1888  10.2131  10.5605
    10.5935  10.6158  10.6355  10.6724  10.6744  10.6975  10.8985  10.8995
    10.9247  10.9260  10.9536  10.9549  10.9856  11.0621  11.0668  11.0677
    11.0741  11.1057  11.1068  11.1516  11.1529  11.2001  11.2497  11.2511
    11.2643  11.2650  11.2745  11.4194  11.4746  11.5330  11.5340  11.6072
    11.6116  11.7152  11.7238  11.8927  11.9061  11.9218  11.9956  11.9975
    12.0112  12.0428  12.0445  12.0720  12.0735  12.0826  12.1484  12.1496
    12.5860  12.5870  12.7622  12.7633  12.8118  13.1171

          k = 0.0000 0.2887 0.1957 ( 89997 PWs)   bands (ev):

   -61.1682 -61.1682 -61.1646 -61.1646 -61.1633 -61.1632 -61.1632 -61.1632
   -61.1615 -61.1614 -61.1614 -61.1614 -61.1609 -61.1609 -61.1596 -61.1596
   -61.1596 -61.1595 -34.7049 -34.7047 -34.7029 -34.7027 -34.7023 -34.7022
   -34.7021 -34.7020 -34.7019 -34.7018 -34.7018 -34.7017 -34.7017 -34.7017
   -34.7017 -34.7016 -34.7016 -34.7015 -34.7015 -34.7014 -34.7014 -34.7013
   -34.7013 -34.7013 -34.7012 -34.7011 -34.7011 -34.7011 -34.7011 -34.7011
   -34.7009 -34.7008 -34.7008 -34.7007 -34.7006 -34.7003 -34.7002 -34.7000
   -34.7000 -34.6999 -34.6999 -34.6998 -34.6996 -34.6995 -34.6994 -34.6994
   -34.6994 -34.6993 -34.6991 -34.6990 -34.6990 -34.6989 -34.6988 -34.6988
   -34.6987 -34.6987 -34.6987 -34.6986 -34.6986 -34.6986 -34.6985 -34.6983
   -34.6983 -34.6983 -34.6982 -34.6981 -34.6979 -34.6978 -34.6977 -34.6974
   -34.6958 -34.6956 -34.6692 -34.6689 -34.6673 -34.6668 -34.6665 -34.6664
   -34.6662 -34.6662 -34.6661 -34.6660 -34.6659 -34.6658 -34.6658 -34.6657
   -34.6657 -34.6656 -34.6656 -34.6656 -34.6656 -34.6655 -34.6655 -34.6655
   -34.6654 -34.6654 -34.6654 -34.6653 -34.6653 -34.6652 -34.6652 -34.6652
   -34.6651 -34.6651 -34.6650 -34.6650 -34.6650 -34.6650 -34.6650 -34.6649
   -34.6649 -34.6648 -34.6648 -34.6648 -34.6647 -34.6646 -34.6646 -34.6646
   -34.6646 -34.6646 -34.6645 -34.6644 -34.6643 -34.6643 -34.6642 -34.6641
   -34.6641 -34.6640 -34.6639 -34.6639 -34.6639 -34.6638 -34.6638 -34.6637
   -34.6637 -34.6636 -34.6636 -34.6635 -34.6634 -34.6633 -34.6631 -34.6625
   -34.6611 -34.6607 -34.6524 -34.6505 -34.6504 -34.6500 -34.6498 -34.6497
   -34.6495 -34.6494 -34.6494 -34.6493 -34.6491 -34.6491 -34.6490 -34.6490
   -34.6487 -34.6487 -34.6486 -34.6483 -34.6481 -34.6479 -34.6476 -34.6473
   -34.6470 -34.6470 -34.6470 -34.6467 -34.6466 -34.6466 -34.6465 -34.6464
   -34.6463 -34.6462 -34.6462 -34.6461 -34.6458 -34.6439 -25.4765 -25.4764
   -25.4589 -25.4585 -25.4585 -25.4582 -25.4556 -25.4552 -25.4552 -25.4547
   -25.4172 -25.4168 -25.4168 -25.4165 -25.3932 -25.3929 -25.3929 -25.3926
   -25.3893 -25.3893 -25.3783 -25.3783 -25.3600 -25.3600 -25.3534 -25.3533
   -25.3533 -25.3532 -25.3442 -25.3442 -25.3442 -25.3441 -25.3417 -25.3417
   -25.3355 -25.3352 -25.3352 -25.3351 -25.3350 -25.3350 -25.3350 -25.3348
   -25.3314 -25.3314 -25.3230 -25.3230 -25.3230 -25.3230 -25.3108 -25.3108
   -25.3007 -25.3007 -25.2901 -25.2901  -1.8276  -1.6296  -1.1086  -0.9273
    -0.8042  -0.8029  -0.6567  -0.6364  -0.6351  -0.3307  -0.3250  -0.3239
    -0.2708  -0.1925  -0.1914  -0.1703  -0.1091  -0.1083  -0.0562  -0.0153
     0.1116   0.1124   0.1384   0.1395   0.2125   0.2280   0.2288   0.2819
     0.2827   0.2923   0.2935   0.3370   0.4295   0.4310   0.4841   0.4856
     6.4385   6.7451   6.9803   7.0853   7.0856   7.2630   7.2690   7.3153
     7.3156   7.3193   7.3197   7.4298   7.4301   7.4798   7.4813   7.6325
     7.6335   7.7686   7.7696   7.8984   7.9370   7.9398   7.9410   7.9899
     8.0862   8.0872   8.1291   8.1300   8.1696   8.1700   8.4268   8.4275
     8.5139   8.5458   8.5462   8.5473   8.6714   8.7133   8.7141   8.8982
     8.8992   9.0072   9.0085   9.0230   9.0236   9.0501   9.1166   9.1171
     9.1193   9.1201   9.1847   9.3065   9.3072   9.5529   9.6738   9.6746
     9.8047   9.8055   9.8179   9.8180   9.9154   9.9375   9.9641   9.9651
     9.9675   9.9684  10.0233  10.1852  10.1870  10.1887  10.2132  10.5604
    10.5935  10.6158  10.6356  10.6724  10.6744  10.6976  10.8987  10.8997
    10.9246  10.9260  10.9534  10.9547  10.9856  11.0619  11.0671  11.0681
    11.0742  11.1050  11.1061  11.1518  11.1530  11.2000  11.2496  11.2508
    11.2648  11.2655  11.2745  11.4194  11.4746  11.5327  11.5337  11.6077
    11.6115  11.7152  11.7239  11.8928  11.9061  11.9218  11.9958  11.9978
    12.0102  12.0427  12.0444  12.0716  12.0730  12.0832  12.1488  12.1500
    12.5861  12.5871  12.7621  12.7633  12.8117  13.1171

     highest occupied level (ev):    13.1172

!    total energy              =  -11463.78547764 Ry
     estimated scf accuracy    <          3.4E-11 Ry

     The total energy is the sum of the following terms:
     one-electron contribution =   -5489.08680173 Ry
     hartree contribution      =    3013.32462716 Ry
     xc contribution           =   -2341.03936612 Ry
     ewald contribution        =   -6645.01539324 Ry
     Dispersion Correction     =      -1.96854372 Ry

     convergence has been achieved in  22 iterations

     Forces acting on atoms (cartesian axes, Ry/au):

     atom    1 type  1   force =    -0.00492327    0.00001529   -0.00787523
     atom    2 type  1   force =     0.00003433   -0.00023344   -0.00019098
     atom    3 type  1   force =     0.00003055    0.00023144   -0.00019304
     atom    4 type  1   force =     0.00005154   -0.00021936   -0.00019451
     atom    5 type  1   force =     0.00005468    0.00022136   -0.00018976
     atom    6 type  1   force =     0.00006157   -0.00000007    0.00001757
     atom    7 type  1   force =     0.00005416    0.00024253   -0.00019363
     atom    8 type  1   force =     0.00006165    0.00000047    0.00001743
     atom    9 type  1   force =     0.00005257   -0.00024628   -0.00019064
     atom   10 type  1   force =     0.00000130    0.00000241    0.00000019
     atom   11 type  1   force =    -0.00000183    0.00000018    0.00000839
     atom   12 type  1   force =     0.00000105   -0.00000237   -0.00000020
     atom   13 type  1   force =     0.00000514    0.00000015    0.00000019
     atom   14 type  1   force =     0.00000195    0.00000371    0.00001159
     atom   15 type  1   force =     0.00000148   -0.00000345    0.00001158
     atom   16 type  1   force =     0.00000386    0.00000343    0.00000817
     atom   17 type  1   force =     0.00000400   -0.00000323    0.00000843
     atom   18 type  1   force =    -0.00000450   -0.00000006    0.00001173
     atom   19 type  2   force =     0.00000849   -0.00000036   -0.00003914
     atom   20 type  2   force =     0.00000267    0.00000861    0.00000415
     atom   21 type  2   force =     0.00000136    0.00000389    0.00000128
     atom   22 type  2   force =    -0.00000290   -0.00000305    0.00000535
     atom   23 type  2   force =     0.00000932   -0.00000173    0.00000041
     atom   24 type  2   force =    -0.00000377   -0.00000017   -0.00000947
     atom   25 type  2   force =    -0.00000497   -0.00000355    0.00000678
     atom   26 type  2   force =    -0.00000054   -0.00000019   -0.00000529
     atom   27 type  2   force =     0.00000497   -0.00000389   -0.00000112
     atom   28 type  2   force =     0.00198679   -0.00098748    0.00221694
     atom   29 type  2   force =     0.00001367    0.00000223    0.00005189
     atom   30 type  2   force =     0.00004449   -0.00013490    0.00058486
     atom   31 type  2   force =     0.00027689    0.00111470    0.00139387
     atom   32 type  2   force =     0.00005364    0.00008188    0.00009468
     atom   33 type  2   force =    -0.00002261   -0.00003870    0.00004369
     atom   34 type  2   force =     0.00000920   -0.00000230    0.00004117
     atom   35 type  2   force =     0.00001273    0.00000136    0.00006272
     atom   36 type  2   force =    -0.00008954   -0.00004313    0.00006891
     atom   37 type  2   force =     0.00004122    0.00013713    0.00058086
     atom   38 type  2   force =     0.00001235   -0.00000100    0.00004680
     atom   39 type  2   force =     0.00190501    0.00093802    0.00213028
     atom   40 type  2   force =     0.00027912   -0.00108229    0.00136205
     atom   41 type  2   force =    -0.00002294    0.00003837    0.00003906
     atom   42 type  2   force =     0.00005033   -0.00008135    0.00008984
     atom   43 type  2   force =     0.00001105   -0.00000038    0.00005879
     atom   44 type  2   force =     0.00000940    0.00000263    0.00003468
     atom   45 type  2   force =    -0.00009053    0.00004320    0.00006473
     atom   46 type  2   force =     0.00000824   -0.00000033   -0.00003508
     atom   47 type  2   force =     0.00000102   -0.00000353    0.00000601
     atom   48 type  2   force =     0.00000334   -0.00000825    0.00000915
     atom   49 type  2   force =     0.00000869    0.00000140    0.00000484
     atom   50 type  2   force =    -0.00000206    0.00000293    0.00000979
     atom   51 type  2   force =    -0.00000380   -0.00000018   -0.00000536
     atom   52 type  2   force =     0.00000471    0.00000411    0.00000351
     atom   53 type  2   force =    -0.00000047   -0.00000017   -0.00000043
     atom   54 type  2   force =    -0.00000479    0.00000372    0.00001155

     Total force =     0.010625     Total SCF correction =     0.000034


     Computing stress (Cartesian axis) and pressure

          total   stress  (Ry/bohr**3)                   (kbar)     P=        0.02
   0.00000004  -0.00000047   0.00000003            0.01       -0.07        0.00
  -0.00000047   0.00000005  -0.00000000           -0.07        0.01       -0.00
   0.00000003  -0.00000000   0.00000025            0.00       -0.00        0.04


     Writing all to output data dir ./WSe.save/ :
     XML data file, charge density, pseudopotentials, collected wavefunctions
 
     init_run     :     10.66s CPU     12.62s WALL (       1 calls)
     electrons    :    721.14s CPU    865.35s WALL (       1 calls)
     forces       :      7.60s CPU      8.13s WALL (       1 calls)
     force_london :      0.04s CPU      0.05s WALL (       1 calls)
     stress       :    115.09s CPU    120.66s WALL (       1 calls)
     stres_london :      0.04s CPU      0.04s WALL (       1 calls)

     Called by init_run:
     wfcinit      :      9.85s CPU     11.51s WALL (       1 calls)
     potinit      :      0.05s CPU      0.15s WALL (       1 calls)
     hinit0       :      0.34s CPU      0.51s WALL (       1 calls)

     Called by electrons:
     c_bands      :    680.32s CPU    814.85s WALL (      23 calls)
     sum_band     :     38.88s CPU     44.85s WALL (      23 calls)
     v_of_rho     :      1.30s CPU      1.45s WALL (      23 calls)
     mix_rho      :      0.48s CPU      0.57s WALL (      23 calls)
     energy_londo :      0.06s CPU      0.06s WALL (       1 calls)

     Called by c_bands:
     init_us_2    :      8.65s CPU      8.75s WALL (     147 calls)
     init_us_2:cp :      8.64s CPU      8.74s WALL (     147 calls)
     cegterg      :    650.29s CPU    774.10s WALL (      69 calls)

     Called by *egterg:
     cdiaghg      :     41.67s CPU    104.99s WALL (     397 calls)
     h_psi        :    375.77s CPU    410.12s WALL (     403 calls)
     g_psi        :      1.49s CPU      1.53s WALL (     331 calls)

     Called by h_psi:
     h_psi:calbec :     96.79s CPU    103.00s WALL (     403 calls)
     vloc_psi     :    189.55s CPU    216.87s WALL (     403 calls)
     add_vuspsi   :     85.55s CPU     85.99s WALL (     403 calls)

     General routines
     calbec       :    103.82s CPU    112.12s WALL (     418 calls)
     fft          :      1.06s CPU      1.37s WALL (     255 calls)
     ffts         :      0.07s CPU      0.09s WALL (      23 calls)
     fftw         :    201.80s CPU    230.77s WALL (  180940 calls)
 
     Parallel routines
     fft_scatt_xy :     23.69s CPU     26.60s WALL (  181218 calls)
     fft_scatt_yz :    113.24s CPU    132.09s WALL (  181218 calls)
 
     PWSCF        :  14m16.58s CPU  16m58.63s WALL

 
   This run was terminated on:  17:24:34   5Nov2024            

=------------------------------------------------------------------------------=
   JOB DONE.
=------------------------------------------------------------------------------=
