srun: Step created for StepId=20162838.2

     Program PWSCF v.7.3 starts on  5Nov2024 at 17:45: 4 

     This program is part of the open-source Quantum ESPRESSO suite
     for quantum simulation of materials; please cite
         "P. Giannozzi et al., J. Phys.:Condens. Matter 21 395502 (2009);
         "P. Giannozzi et al., J. Phys.:Condens. Matter 29 465901 (2017);
         "P. Giannozzi et al., J. Chem. Phys. 152 154105 (2020);
          URL http://www.quantum-espresso.org", 
     in publications or presentations arising from this work. More details at
     http://www.quantum-espresso.org/quote

     Parallel version (MPI & OpenMP), running on     256 processor cores
     Number of MPI processes:               256
     Threads/MPI process:                     1

     MPI processes distributed on     1 nodes
     468089 MiB available memory on the printing compute node when the environment starts
 
     Waiting for input...
     Reading input from standard input

     Current dimensions of program PWSCF are:
     Max number of different atomic species (ntypx) = 10
     Max number of k-points (npk) =  40000
     Max angular momentum in pseudopotentials (lmaxx) =  4
 
     K-points division:     npool     =       4
     R & G space division:  proc/nbgrp/npool/nimage =      64
     Subspace diagonalization in iterative solution of the eigenvalue problem:
     one sub-group per band group will be used
     scalapack distributed-memory algorithm (size of sub-group:  4*  4 procs)

 
     Parallelization info
     --------------------
     sticks:   dense  smooth     PW     G-vecs:    dense   smooth      PW
     Min         122     122     32                11252    11252    1492
     Max         123     123     33                11261    11261    1499
     Sum        7861    7861   2053               720389   720389   95627
 
     Using Pencil Decomposition
 


     bravais-lattice index     =            0
     lattice parameter (alat)  =      18.8835  a.u.
     unit-cell volume          =    7451.1810 (a.u.)^3
     number of atoms/cell      =           54
     number of atomic types    =            2
     number of electrons       =       828.00
     number of Kohn-Sham states=          414
     kinetic-energy cutoff     =      80.0000  Ry
     charge density cutoff     =     320.0000  Ry
     scf convergence threshold =      1.0E-10
     mixing beta               =       0.5000
     number of iterations used =            8  plain     mixing
     Exchange-correlation= PBE
                           (   1   4   3   4   0   0   0)

     celldm(1)=  18.883515  celldm(2)=   0.000000  celldm(3)=   0.000000
     celldm(4)=   0.000000  celldm(5)=   0.000000  celldm(6)=   0.000000

     crystal axes: (cart. coord. in units of alat)
               a(1) = (   1.000000   0.000000   0.000000 )  
               a(2) = (  -0.500000   0.866025   0.000000 )  
               a(3) = (   0.000000   0.000000   1.277750 )  

     reciprocal axes: (cart. coord. in units 2 pi/alat)
               b(1) = (  1.000000  0.577350  0.000000 )  
               b(2) = (  0.000000  1.154701  0.000000 )  
               b(3) = (  0.000000  0.000000  0.782626 )  


     PseudoPot. # 1 for W  read from file:
     /users/rkarkee/pbe_pseudo/W.upf
     MD5 check sum: cb94e439a9e4ea809831d6e90c63864e
     Pseudo is Norm-conserving + core correction, Zval = 14.0
     Generated using ONCVPSP code by D. R. Hamann
     Using radial grid of 1396 points,  8 beta functions with: 
                l(1) =   0
                l(2) =   0
                l(3) =   1
                l(4) =   1
                l(5) =   2
                l(6) =   2
                l(7) =   3
                l(8) =   3

     PseudoPot. # 2 for Se read from file:
     /users/rkarkee/pbe_pseudo/Se.upf
     MD5 check sum: 3cc46b3642295b3f4fdae63b742ce36d
     Pseudo is Norm-conserving + core correction, Zval = 16.0
     Generated using ONCVPSP code by D. R. Hamann
     Using radial grid of 1214 points,  6 beta functions with: 
                l(1) =   0
                l(2) =   0
                l(3) =   1
                l(4) =   1
                l(5) =   2
                l(6) =   2

     atomic species   valence    mass     pseudopotential
     W                14.00   183.84000     W ( 1.00)
     Se               16.00    78.96000     Se( 1.00)

     No symmetry found



   Cartesian axes

     site n.     atom                  positions (alat units)
         1        W      tau(   1) = (  -0.0000000   0.1924501   0.9583127  )
         2        W      tau(   2) = (   0.3333333   0.1924501   0.9583127  )
         3        W      tau(   3) = (   0.6666667   0.1924501   0.9583127  )
         4        W      tau(   4) = (  -0.1666667   0.4811252   0.9583127  )
         5        W      tau(   5) = (   0.1666667   0.4811252   0.9583127  )
         6        W      tau(   6) = (   0.5000000   0.4811252   0.9583127  )
         7        W      tau(   7) = (  -0.3333333   0.7698004   0.9583127  )
         8        W      tau(   8) = (   0.0000000   0.7698004   0.9583127  )
         9        W      tau(   9) = (   0.3333333   0.7698004   0.9583127  )
        10        W      tau(  10) = (   0.1666667   0.0962250   0.3194376  )
        11        W      tau(  11) = (   0.5000000   0.0962250   0.3194376  )
        12        W      tau(  12) = (   0.8333333   0.0962250   0.3194376  )
        13        W      tau(  13) = (  -0.0000000   0.3849002   0.3194376  )
        14        W      tau(  14) = (   0.3333333   0.3849002   0.3194376  )
        15        W      tau(  15) = (   0.6666667   0.3849002   0.3194376  )
        16        W      tau(  16) = (  -0.1666667   0.6735753   0.3194376  )
        17        W      tau(  17) = (   0.1666667   0.6735753   0.3194376  )
        18        W      tau(  18) = (   0.5000000   0.6735753   0.3194376  )
        19        Se     tau(  19) = (  -0.0006528   0.1924501   0.1520234  )
        20        Se     tau(  20) = (   0.3333333   0.1924501   0.1528574  )
        21        Se     tau(  21) = (   0.6666667   0.1924501   0.1528574  )
        22        Se     tau(  22) = (  -0.1666667   0.4811252   0.1528574  )
        23        Se     tau(  23) = (   0.1666667   0.4811252   0.1528574  )
        24        Se     tau(  24) = (   0.5000000   0.4811252   0.1528574  )
        25        Se     tau(  25) = (  -0.3333333   0.7698004   0.1528574  )
        26        Se     tau(  26) = (   0.0000000   0.7698004   0.1528574  )
        27        Se     tau(  27) = (   0.3333333   0.7698004   0.1528574  )
        28        Se     tau(  28) = (   0.1666667   0.0962250   1.1248928  )
        29        Se     tau(  29) = (   0.5000000   0.0962250   1.1248928  )
        30        Se     tau(  30) = (   0.8333333   0.0962250   1.1248928  )
        31        Se     tau(  31) = (  -0.0000000   0.3849002   1.1248928  )
        32        Se     tau(  32) = (   0.3333333   0.3849002   1.1248928  )
        33        Se     tau(  33) = (   0.6666667   0.3849002   1.1248928  )
        34        Se     tau(  34) = (  -0.1666667   0.6735753   1.1248928  )
        35        Se     tau(  35) = (   0.1666667   0.6735753   1.1248928  )
        36        Se     tau(  36) = (   0.5000000   0.6735753   1.1248928  )
        37        Se     tau(  37) = (   0.1666667   0.0962250   0.7917325  )
        38        Se     tau(  38) = (   0.5000000   0.0962250   0.7917325  )
        39        Se     tau(  39) = (   0.8333333   0.0962250   0.7917325  )
        40        Se     tau(  40) = (  -0.0000000   0.3849002   0.7917325  )
        41        Se     tau(  41) = (   0.3333333   0.3849002   0.7917325  )
        42        Se     tau(  42) = (   0.6666667   0.3849002   0.7917325  )
        43        Se     tau(  43) = (  -0.1666667   0.6735753   0.7917325  )
        44        Se     tau(  44) = (   0.1666667   0.6735753   0.7917325  )
        45        Se     tau(  45) = (   0.5000000   0.6735753   0.7917325  )
        46        Se     tau(  46) = (  -0.0000000   0.1924501   0.4860177  )
        47        Se     tau(  47) = (   0.3333333   0.1924501   0.4860177  )
        48        Se     tau(  48) = (   0.6666667   0.1924501   0.4860177  )
        49        Se     tau(  49) = (  -0.1666667   0.4811252   0.4860177  )
        50        Se     tau(  50) = (   0.1666667   0.4811252   0.4860177  )
        51        Se     tau(  51) = (   0.5000000   0.4811252   0.4860177  )
        52        Se     tau(  52) = (  -0.3333333   0.7698004   0.4860177  )
        53        Se     tau(  53) = (   0.0000000   0.7698004   0.4860177  )
        54        Se     tau(  54) = (   0.3333333   0.7698004   0.4860177  )

     -------------------------------------------------
     Parameters for Dispersion (Grimme-D2) Correction:
     -------------------------------------------------
       atom      VdW radius       C_6     

        W          3.349       2818.308
        Se         3.347        438.498

     number of k points=    12
                       cart. coord. in units 2pi/alat
        k(    1) = (   0.2500000   0.4330127   0.1956564), wk =   0.1666667
        k(    2) = (   0.2500000  -0.1443376   0.1956564), wk =   0.1666667
        k(    3) = (  -0.2500000  -0.4330127   0.1956564), wk =   0.1666667
        k(    4) = (  -0.2500000   0.4330127  -0.1956564), wk =   0.1666667
        k(    5) = (   0.2500000  -0.4330127  -0.1956564), wk =   0.1666667
        k(    6) = (   0.5000000  -0.0000000   0.1956564), wk =   0.1666667
        k(    7) = (  -0.5000000   0.0000000   0.1956564), wk =   0.1666667
        k(    8) = (  -0.2500000   0.1443376   0.1956564), wk =   0.1666667
        k(    9) = (  -0.2500000  -0.1443376  -0.1956564), wk =   0.1666667
        k(   10) = (   0.2500000   0.1443376  -0.1956564), wk =   0.1666667
        k(   11) = (   0.0000000  -0.2886751   0.1956564), wk =   0.1666667
        k(   12) = (   0.0000000   0.2886751   0.1956564), wk =   0.1666667

     Dense  grid:   720389 G-vectors     FFT dimensions: ( 108, 108, 144)

     Estimated max dynamical RAM per process >     121.33 MB

     Estimated total dynamical RAM >      29.82 GB

     Initial potential from superposition of free atoms

     starting charge     827.9882, renormalised to     828.0000
     Starting wfcs are  504 randomized atomic wfcs

     total cpu time spent up to now is       13.3 secs

     Self-consistent Calculation

     iteration #  1     ecut=    80.00 Ry     beta= 0.50
     Davidson diagonalization with overlap
     ethr =  1.00E-02,  avg # of iterations =  2.0

     Threshold (ethr) on eigenvalues was too large:
     Diagonalizing with lowered threshold

     Davidson diagonalization with overlap
     ethr =  8.61E-05,  avg # of iterations =  5.5

     total cpu time spent up to now is       94.0 secs

     total energy              =  -11463.60429577 Ry
     estimated scf accuracy    <       1.12742563 Ry

     iteration #  2     ecut=    80.00 Ry     beta= 0.50
     Davidson diagonalization with overlap
     ethr =  1.36E-04,  avg # of iterations =  2.2

     total cpu time spent up to now is      125.5 secs

     total energy              =  -11463.72259090 Ry
     estimated scf accuracy    <       0.23444600 Ry

     iteration #  3     ecut=    80.00 Ry     beta= 0.50
     Davidson diagonalization with overlap
     ethr =  2.83E-05,  avg # of iterations =  5.2

     total cpu time spent up to now is      168.3 secs

     total energy              =  -11463.74022689 Ry
     estimated scf accuracy    <       0.22524936 Ry

     iteration #  4     ecut=    80.00 Ry     beta= 0.50
     Davidson diagonalization with overlap
     ethr =  2.72E-05,  avg # of iterations =  5.5

     total cpu time spent up to now is      203.7 secs

     total energy              =  -11463.78391548 Ry
     estimated scf accuracy    <       0.00849902 Ry

     iteration #  5     ecut=    80.00 Ry     beta= 0.50
     Davidson diagonalization with overlap
     ethr =  1.03E-06,  avg # of iterations =  6.0

     total cpu time spent up to now is      247.9 secs

     total energy              =  -11463.78458851 Ry
     estimated scf accuracy    <       0.01362714 Ry

     iteration #  6     ecut=    80.00 Ry     beta= 0.50
     Davidson diagonalization with overlap
     ethr =  1.03E-06,  avg # of iterations =  4.9

     total cpu time spent up to now is      281.9 secs

     total energy              =  -11463.78384195 Ry
     estimated scf accuracy    <       0.00496923 Ry

     iteration #  7     ecut=    80.00 Ry     beta= 0.50
     Davidson diagonalization with overlap
     ethr =  6.00E-07,  avg # of iterations =  6.0

     total cpu time spent up to now is      327.1 secs

     total energy              =  -11463.78533174 Ry
     estimated scf accuracy    <       0.00788990 Ry

     iteration #  8     ecut=    80.00 Ry     beta= 0.50
     Davidson diagonalization with overlap
     ethr =  6.00E-07,  avg # of iterations =  2.5

     total cpu time spent up to now is      357.6 secs

     total energy              =  -11463.78497338 Ry
     estimated scf accuracy    <       0.00269991 Ry

     iteration #  9     ecut=    80.00 Ry     beta= 0.50
     Davidson diagonalization with overlap
     ethr =  3.26E-07,  avg # of iterations =  5.3

     total cpu time spent up to now is      395.9 secs

     total energy              =  -11463.78549469 Ry
     estimated scf accuracy    <       0.00005395 Ry

     iteration # 10     ecut=    80.00 Ry     beta= 0.50
     Davidson diagonalization with overlap
     ethr =  6.52E-09,  avg # of iterations =  6.0

     total cpu time spent up to now is      440.5 secs

     total energy              =  -11463.78551456 Ry
     estimated scf accuracy    <       0.00001069 Ry

     iteration # 11     ecut=    80.00 Ry     beta= 0.50
     Davidson diagonalization with overlap
     ethr =  1.29E-09,  avg # of iterations =  7.0

     total cpu time spent up to now is      485.1 secs

     total energy              =  -11463.78551516 Ry
     estimated scf accuracy    <       0.00001837 Ry

     iteration # 12     ecut=    80.00 Ry     beta= 0.50
     Davidson diagonalization with overlap
     ethr =  1.29E-09,  avg # of iterations =  6.0

     total cpu time spent up to now is      521.3 secs

     total energy              =  -11463.78551678 Ry
     estimated scf accuracy    <       0.00000106 Ry

     iteration # 13     ecut=    80.00 Ry     beta= 0.50
     Davidson diagonalization with overlap
     ethr =  1.28E-10,  avg # of iterations =  7.2

     total cpu time spent up to now is      570.8 secs

     total energy              =  -11463.78551707 Ry
     estimated scf accuracy    <       0.00000407 Ry

     iteration # 14     ecut=    80.00 Ry     beta= 0.50
     Davidson diagonalization with overlap
     ethr =  1.28E-10,  avg # of iterations =  5.8

     total cpu time spent up to now is      608.1 secs

     total energy              =  -11463.78551721 Ry
     estimated scf accuracy    <       0.00000054 Ry

     iteration # 15     ecut=    80.00 Ry     beta= 0.50
     Davidson diagonalization with overlap
     ethr =  6.55E-11,  avg # of iterations =  6.0

     total cpu time spent up to now is      647.9 secs

     total energy              =  -11463.78551732 Ry
     estimated scf accuracy    <       0.00000007 Ry

     iteration # 16     ecut=    80.00 Ry     beta= 0.50
     Davidson diagonalization with overlap
     ethr =  8.10E-12,  avg # of iterations =  6.5

     total cpu time spent up to now is      692.2 secs

     total energy              =  -11463.78551731 Ry
     estimated scf accuracy    <       0.00000016 Ry

     iteration # 17     ecut=    80.00 Ry     beta= 0.50
     Davidson diagonalization with overlap
     ethr =  8.10E-12,  avg # of iterations =  5.9

     total cpu time spent up to now is      728.0 secs

     total energy              =  -11463.78551731 Ry
     estimated scf accuracy    <       0.00000003 Ry

     iteration # 18     ecut=    80.00 Ry     beta= 0.50
     Davidson diagonalization with overlap
     ethr =  3.76E-12,  avg # of iterations =  5.8

     total cpu time spent up to now is      766.7 secs

     total energy              =  -11463.78551732 Ry
     estimated scf accuracy    <          6.1E-09 Ry

     iteration # 19     ecut=    80.00 Ry     beta= 0.50
     Davidson diagonalization with overlap
     ethr =  7.34E-13,  avg # of iterations =  7.0

     total cpu time spent up to now is      805.0 secs

     total energy              =  -11463.78551732 Ry
     estimated scf accuracy    <          9.7E-10 Ry

     iteration # 20     ecut=    80.00 Ry     beta= 0.50
     Davidson diagonalization with overlap
     ethr =  1.18E-13,  avg # of iterations =  6.8

     total cpu time spent up to now is      846.5 secs

     total energy              =  -11463.78551732 Ry
     estimated scf accuracy    <          7.4E-10 Ry

     iteration # 21     ecut=    80.00 Ry     beta= 0.50
     Davidson diagonalization with overlap
     ethr =  1.00E-13,  avg # of iterations =  6.0

     total cpu time spent up to now is      882.9 secs

     total energy              =  -11463.78551732 Ry
     estimated scf accuracy    <          4.9E-10 Ry

     iteration # 22     ecut=    80.00 Ry     beta= 0.50
     Davidson diagonalization with overlap
     ethr =  1.00E-13,  avg # of iterations =  6.0

     total cpu time spent up to now is      914.1 secs

     End of self-consistent calculation

          k = 0.2500 0.4330 0.1957 ( 90083 PWs)   bands (ev):

   -61.1675 -61.1673 -61.1657 -61.1655 -61.1655 -61.1653 -61.1623 -61.1619
   -61.1619 -61.1616 -61.1607 -61.1606 -61.1606 -61.1606 -61.1604 -61.1601
   -61.1599 -61.1597 -34.7022 -34.7021 -34.7020 -34.7019 -34.7019 -34.7018
   -34.7018 -34.7017 -34.7017 -34.7017 -34.7017 -34.7017 -34.7016 -34.7016
   -34.7014 -34.7014 -34.7014 -34.7013 -34.7013 -34.7013 -34.7012 -34.7012
   -34.7012 -34.7011 -34.7011 -34.7011 -34.7011 -34.7009 -34.7009 -34.7008
   -34.7008 -34.7007 -34.7006 -34.7006 -34.7006 -34.7006 -34.7006 -34.7005
   -34.7003 -34.7003 -34.7002 -34.7002 -34.7001 -34.7000 -34.6998 -34.6997
   -34.6994 -34.6993 -34.6992 -34.6992 -34.6991 -34.6990 -34.6990 -34.6989
   -34.6987 -34.6986 -34.6985 -34.6985 -34.6985 -34.6984 -34.6984 -34.6984
   -34.6983 -34.6981 -34.6981 -34.6981 -34.6979 -34.6977 -34.6976 -34.6975
   -34.6954 -34.6954 -34.6665 -34.6665 -34.6662 -34.6662 -34.6661 -34.6661
   -34.6661 -34.6660 -34.6660 -34.6660 -34.6659 -34.6658 -34.6658 -34.6657
   -34.6657 -34.6656 -34.6656 -34.6655 -34.6655 -34.6654 -34.6654 -34.6654
   -34.6653 -34.6653 -34.6653 -34.6652 -34.6652 -34.6652 -34.6651 -34.6651
   -34.6651 -34.6651 -34.6650 -34.6650 -34.6650 -34.6649 -34.6649 -34.6649
   -34.6648 -34.6648 -34.6647 -34.6647 -34.6646 -34.6646 -34.6646 -34.6645
   -34.6645 -34.6645 -34.6644 -34.6644 -34.6644 -34.6643 -34.6643 -34.6643
   -34.6642 -34.6642 -34.6641 -34.6641 -34.6640 -34.6639 -34.6639 -34.6639
   -34.6638 -34.6637 -34.6637 -34.6636 -34.6635 -34.6634 -34.6634 -34.6633
   -34.6618 -34.6613 -34.6505 -34.6502 -34.6501 -34.6500 -34.6497 -34.6495
   -34.6495 -34.6494 -34.6492 -34.6491 -34.6491 -34.6490 -34.6490 -34.6488
   -34.6487 -34.6485 -34.6485 -34.6482 -34.6481 -34.6478 -34.6477 -34.6475
   -34.6472 -34.6470 -34.6469 -34.6469 -34.6467 -34.6466 -34.6465 -34.6465
   -34.6464 -34.6462 -34.6461 -34.6459 -34.6459 -34.6449 -25.4826 -25.4826
   -25.4823 -25.4821 -25.4735 -25.4730 -25.4527 -25.4523 -25.4401 -25.4401
   -25.4397 -25.4395 -25.3732 -25.3730 -25.3729 -25.3725 -25.3685 -25.3685
   -25.3681 -25.3680 -25.3663 -25.3659 -25.3641 -25.3641 -25.3641 -25.3636
   -25.3460 -25.3460 -25.3459 -25.3458 -25.3458 -25.3457 -25.3454 -25.3453
   -25.3424 -25.3424 -25.3420 -25.3419 -25.3393 -25.3391 -25.3391 -25.3391
   -25.3388 -25.3384 -25.3366 -25.3363 -25.3260 -25.3256 -25.3091 -25.3091
   -25.3088 -25.3086 -25.2970 -25.2966  -1.6337  -1.4383  -1.2739  -1.2726
    -1.0870  -1.0854  -0.5524  -0.4138  -0.4127  -0.3588  -0.3581  -0.2715
    -0.2702  -0.2436  -0.0853  -0.0845  -0.0289   0.0046   0.0059   0.0729
     0.0946   0.0957   0.0978   0.0990   0.1501   0.2174   0.2690   0.2699
     0.2994   0.3019   0.3026   0.3831   0.3932   0.3938   0.4112   0.4489
     6.6607   6.6616   6.6812   6.8880   6.8888   6.8897   7.0903   7.1096
     7.1104   7.3796   7.4458   7.4822   7.4831   7.4967   7.6619   7.6627
     7.7265   7.7665   7.7940   7.7949   7.8610   7.8615   7.8718   7.8728
     7.9422   8.0761   8.2442   8.2453   8.3504   8.3511   8.5302   8.5312
     8.5906   8.6242   8.6254   8.6915   8.7937   8.8536   8.8541   8.8916
     8.8916   8.9611   8.9614   9.0062   9.0562   9.0577   9.3401   9.3989
     9.3998   9.4511   9.4515   9.5824   9.6047   9.6667   9.7075   9.7224
     9.7317   9.7835   9.7842   9.8266   9.8430   9.8441   9.8760   9.8769
     9.9227   9.9478   9.9479  10.0771  10.3322  10.3816  10.3829  10.4046
    10.4056  10.5126  10.5142  10.5374  10.5383  10.6325  10.6781  10.7244
    10.7256  10.7575  10.7803  10.9174  10.9188  10.9194  10.9862  10.9894
    10.9900  10.9967  11.0296  11.0302  11.0782  11.1017  11.1024  11.1649
    11.2522  11.2529  11.2569  11.2577  11.3757  11.3768  11.5267  11.5287
    11.6289  11.8893  11.8904  11.9863  12.1782  12.1788  12.1830  12.1841
    12.2146  12.2151  12.2515  12.2525  12.2666  12.2674  12.3443  12.3589
    12.3598  12.4105  12.4456  12.6189  12.6281  12.7706

          k = 0.2500-0.1443 0.1957 ( 89997 PWs)   bands (ev):

   -61.1684 -61.1684 -61.1650 -61.1648 -61.1634 -61.1634 -61.1634 -61.1633
   -61.1619 -61.1616 -61.1616 -61.1613 -61.1611 -61.1608 -61.1598 -61.1598
   -61.1596 -61.1594 -34.7023 -34.7021 -34.7021 -34.7021 -34.7020 -34.7020
   -34.7020 -34.7019 -34.7019 -34.7019 -34.7017 -34.7017 -34.7016 -34.7016
   -34.7015 -34.7015 -34.7015 -34.7014 -34.7014 -34.7014 -34.7014 -34.7013
   -34.7013 -34.7012 -34.7011 -34.7011 -34.7010 -34.7010 -34.7010 -34.7010
   -34.7009 -34.7008 -34.7006 -34.7006 -34.7003 -34.7002 -34.7002 -34.7001
   -34.7001 -34.6998 -34.6997 -34.6997 -34.6997 -34.6995 -34.6995 -34.6993
   -34.6993 -34.6992 -34.6990 -34.6990 -34.6990 -34.6989 -34.6989 -34.6989
   -34.6989 -34.6989 -34.6987 -34.6986 -34.6985 -34.6985 -34.6985 -34.6985
   -34.6984 -34.6983 -34.6983 -34.6982 -34.6981 -34.6980 -34.6978 -34.6976
   -34.6955 -34.6954 -34.6667 -34.6667 -34.6661 -34.6661 -34.6661 -34.6660
   -34.6660 -34.6659 -34.6659 -34.6658 -34.6658 -34.6657 -34.6657 -34.6657
   -34.6657 -34.6656 -34.6656 -34.6655 -34.6654 -34.6654 -34.6654 -34.6654
   -34.6653 -34.6653 -34.6653 -34.6653 -34.6652 -34.6652 -34.6652 -34.6652
   -34.6651 -34.6651 -34.6650 -34.6650 -34.6650 -34.6649 -34.6649 -34.6649
   -34.6649 -34.6648 -34.6648 -34.6647 -34.6647 -34.6647 -34.6646 -34.6646
   -34.6645 -34.6645 -34.6645 -34.6644 -34.6643 -34.6643 -34.6643 -34.6642
   -34.6642 -34.6641 -34.6641 -34.6641 -34.6640 -34.6640 -34.6639 -34.6638
   -34.6638 -34.6637 -34.6635 -34.6635 -34.6634 -34.6634 -34.6633 -34.6632
   -34.6617 -34.6613 -34.6507 -34.6502 -34.6500 -34.6498 -34.6497 -34.6495
   -34.6494 -34.6493 -34.6493 -34.6492 -34.6491 -34.6490 -34.6490 -34.6489
   -34.6487 -34.6485 -34.6485 -34.6484 -34.6482 -34.6477 -34.6476 -34.6473
   -34.6472 -34.6469 -34.6469 -34.6468 -34.6468 -34.6467 -34.6465 -34.6465
   -34.6464 -34.6463 -34.6461 -34.6459 -34.6459 -34.6449 -25.4767 -25.4762
   -25.4587 -25.4587 -25.4584 -25.4581 -25.4554 -25.4554 -25.4551 -25.4547
   -25.4170 -25.4170 -25.4168 -25.4164 -25.3931 -25.3931 -25.3927 -25.3926
   -25.3895 -25.3890 -25.3785 -25.3782 -25.3602 -25.3600 -25.3535 -25.3535
   -25.3533 -25.3533 -25.3444 -25.3444 -25.3442 -25.3441 -25.3419 -25.3416
   -25.3354 -25.3354 -25.3352 -25.3352 -25.3351 -25.3350 -25.3349 -25.3349
   -25.3317 -25.3312 -25.3232 -25.3232 -25.3228 -25.3227 -25.3110 -25.3106
   -25.3009 -25.3005 -25.2903 -25.2899  -1.8270  -1.6288  -1.1081  -0.9266
    -0.8036  -0.8023  -0.6567  -0.6357  -0.6341  -0.3305  -0.3245  -0.3232
    -0.2706  -0.1919  -0.1904  -0.1698  -0.1088  -0.1084  -0.0555  -0.0149
     0.1120   0.1126   0.1389   0.1395   0.2130   0.2284   0.2297   0.2823
     0.2837   0.2929   0.2937   0.3375   0.4302   0.4309   0.4849   0.4857
     6.4386   6.7459   6.9811   7.0857   7.0861   7.2631   7.2695   7.3162
     7.3166   7.3197   7.3205   7.4299   7.4307   7.4809   7.4818   7.6334
     7.6340   7.7693   7.7704   7.8985   7.9380   7.9406   7.9410   7.9899
     8.0869   8.0872   8.1293   8.1297   8.1692   8.1706   8.4283   8.4287
     8.5139   8.5468   8.5470   8.5476   8.6711   8.7138   8.7142   8.8990
     8.9004   9.0080   9.0089   9.0233   9.0240   9.0507   9.1169   9.1174
     9.1201   9.1206   9.1857   9.3062   9.3072   9.5536   9.6743   9.6755
     9.8056   9.8071   9.8175   9.8190   9.9152   9.9382   9.9648   9.9650
     9.9680   9.9693  10.0240  10.1866  10.1875  10.1898  10.2144  10.5610
    10.5947  10.6173  10.6362  10.6729  10.6734  10.6975  10.8980  10.8992
    10.9247  10.9252  10.9540  10.9546  10.9852  11.0619  11.0677  11.0681
    11.0749  11.1061  11.1076  11.1520  11.1528  11.2012  11.2502  11.2505
    11.2644  11.2651  11.2757  11.4197  11.4751  11.5333  11.5336  11.6070
    11.6127  11.7157  11.7243  11.8930  11.9070  11.9220  11.9964  11.9968
    12.0111  12.0434  12.0439  12.0729  12.0735  12.0828  12.1493  12.1496
    12.5866  12.5867  12.7630  12.7631  12.8113  13.1168

          k =-0.2500-0.4330 0.1957 ( 90083 PWs)   bands (ev):

   -61.1675 -61.1673 -61.1657 -61.1655 -61.1655 -61.1653 -61.1623 -61.1619
   -61.1619 -61.1616 -61.1607 -61.1606 -61.1606 -61.1606 -61.1604 -61.1601
   -61.1599 -61.1597 -34.7022 -34.7021 -34.7020 -34.7019 -34.7019 -34.7018
   -34.7018 -34.7017 -34.7017 -34.7017 -34.7017 -34.7017 -34.7016 -34.7016
   -34.7014 -34.7014 -34.7014 -34.7013 -34.7013 -34.7013 -34.7012 -34.7012
   -34.7012 -34.7011 -34.7011 -34.7011 -34.7011 -34.7009 -34.7009 -34.7008
   -34.7008 -34.7007 -34.7006 -34.7006 -34.7006 -34.7006 -34.7006 -34.7005
   -34.7003 -34.7003 -34.7002 -34.7002 -34.7001 -34.6999 -34.6998 -34.6997
   -34.6994 -34.6993 -34.6992 -34.6992 -34.6991 -34.6990 -34.6990 -34.6989
   -34.6987 -34.6986 -34.6985 -34.6985 -34.6985 -34.6984 -34.6984 -34.6984
   -34.6983 -34.6981 -34.6981 -34.6981 -34.6979 -34.6977 -34.6976 -34.6975
   -34.6954 -34.6954 -34.6665 -34.6665 -34.6662 -34.6662 -34.6661 -34.6661
   -34.6661 -34.6660 -34.6660 -34.6660 -34.6659 -34.6658 -34.6657 -34.6657
   -34.6656 -34.6656 -34.6655 -34.6655 -34.6655 -34.6654 -34.6654 -34.6654
   -34.6654 -34.6653 -34.6653 -34.6652 -34.6652 -34.6652 -34.6651 -34.6651
   -34.6651 -34.6651 -34.6650 -34.6650 -34.6650 -34.6649 -34.6649 -34.6649
   -34.6648 -34.6648 -34.6647 -34.6647 -34.6646 -34.6646 -34.6646 -34.6645
   -34.6645 -34.6645 -34.6644 -34.6644 -34.6643 -34.6643 -34.6643 -34.6643
   -34.6642 -34.6642 -34.6642 -34.6641 -34.6640 -34.6640 -34.6639 -34.6638
   -34.6638 -34.6637 -34.6637 -34.6636 -34.6635 -34.6634 -34.6634 -34.6633
   -34.6618 -34.6613 -34.6505 -34.6502 -34.6501 -34.6500 -34.6497 -34.6495
   -34.6495 -34.6494 -34.6492 -34.6491 -34.6491 -34.6490 -34.6490 -34.6488
   -34.6487 -34.6485 -34.6485 -34.6482 -34.6481 -34.6478 -34.6477 -34.6475
   -34.6472 -34.6470 -34.6469 -34.6469 -34.6467 -34.6466 -34.6465 -34.6465
   -34.6464 -34.6462 -34.6461 -34.6460 -34.6459 -34.6449 -25.4826 -25.4826
   -25.4823 -25.4821 -25.4735 -25.4730 -25.4527 -25.4523 -25.4401 -25.4401
   -25.4397 -25.4395 -25.3732 -25.3730 -25.3729 -25.3725 -25.3685 -25.3685
   -25.3681 -25.3680 -25.3663 -25.3659 -25.3641 -25.3641 -25.3641 -25.3636
   -25.3460 -25.3460 -25.3459 -25.3458 -25.3458 -25.3457 -25.3454 -25.3453
   -25.3424 -25.3424 -25.3420 -25.3419 -25.3393 -25.3391 -25.3391 -25.3391
   -25.3388 -25.3384 -25.3366 -25.3363 -25.3260 -25.3256 -25.3091 -25.3091
   -25.3088 -25.3086 -25.2970 -25.2966  -1.6337  -1.4383  -1.2739  -1.2726
    -1.0870  -1.0854  -0.5524  -0.4138  -0.4127  -0.3588  -0.3581  -0.2715
    -0.2702  -0.2436  -0.0853  -0.0845  -0.0289   0.0046   0.0059   0.0729
     0.0946   0.0957   0.0978   0.0990   0.1501   0.2173   0.2690   0.2699
     0.2994   0.3019   0.3025   0.3831   0.3932   0.3938   0.4112   0.4489
     6.6607   6.6616   6.6812   6.8880   6.8888   6.8897   7.0903   7.1096
     7.1104   7.3796   7.4458   7.4822   7.4831   7.4967   7.6619   7.6626
     7.7265   7.7665   7.7941   7.7949   7.8609   7.8616   7.8718   7.8727
     7.9422   8.0761   8.2442   8.2453   8.3505   8.3511   8.5301   8.5313
     8.5908   8.6241   8.6254   8.6916   8.7935   8.8537   8.8540   8.8915
     8.8916   8.9612   8.9614   9.0059   9.0563   9.0577   9.3402   9.3992
     9.3997   9.4509   9.4515   9.5827   9.6047   9.6669   9.7076   9.7221
     9.7315   9.7835   9.7840   9.8265   9.8430   9.8442   9.8761   9.8769
     9.9228   9.9476   9.9479  10.0770  10.3323  10.3816  10.3830  10.4046
    10.4057  10.5126  10.5140  10.5375  10.5382  10.6326  10.6779  10.7245
    10.7256  10.7575  10.7803  10.9173  10.9187  10.9194  10.9863  10.9895
    10.9900  10.9967  11.0296  11.0302  11.0782  11.1016  11.1026  11.1651
    11.2523  11.2529  11.2571  11.2578  11.3755  11.3768  11.5268  11.5288
    11.6289  11.8891  11.8904  11.9861  12.1783  12.1788  12.1829  12.1842
    12.2146  12.2152  12.2515  12.2524  12.2664  12.2674  12.3443  12.3589
    12.3597  12.4104  12.4455  12.6189  12.6284  12.7705

          k =-0.2500 0.4330-0.1957 ( 90083 PWs)   bands (ev):

   -61.1675 -61.1673 -61.1659 -61.1655 -61.1655 -61.1650 -61.1624 -61.1619
   -61.1619 -61.1615 -61.1610 -61.1606 -61.1606 -61.1606 -61.1602 -61.1601
   -61.1599 -61.1597 -34.7022 -34.7021 -34.7020 -34.7019 -34.7019 -34.7019
   -34.7018 -34.7017 -34.7017 -34.7017 -34.7017 -34.7017 -34.7016 -34.7016
   -34.7015 -34.7014 -34.7014 -34.7013 -34.7013 -34.7013 -34.7012 -34.7012
   -34.7012 -34.7012 -34.7011 -34.7011 -34.7010 -34.7009 -34.7009 -34.7009
   -34.7007 -34.7007 -34.7006 -34.7006 -34.7006 -34.7006 -34.7005 -34.7005
   -34.7003 -34.7002 -34.7002 -34.7002 -34.7001 -34.7000 -34.6998 -34.6997
   -34.6994 -34.6993 -34.6992 -34.6991 -34.6991 -34.6990 -34.6990 -34.6989
   -34.6987 -34.6986 -34.6986 -34.6985 -34.6984 -34.6984 -34.6984 -34.6984
   -34.6983 -34.6981 -34.6981 -34.6981 -34.6979 -34.6978 -34.6976 -34.6975
   -34.6955 -34.6954 -34.6665 -34.6665 -34.6662 -34.6662 -34.6661 -34.6661
   -34.6660 -34.6660 -34.6660 -34.6660 -34.6659 -34.6658 -34.6658 -34.6657
   -34.6656 -34.6656 -34.6656 -34.6655 -34.6655 -34.6655 -34.6654 -34.6654
   -34.6654 -34.6653 -34.6653 -34.6652 -34.6652 -34.6652 -34.6651 -34.6651
   -34.6651 -34.6651 -34.6650 -34.6650 -34.6650 -34.6649 -34.6649 -34.6648
   -34.6648 -34.6648 -34.6647 -34.6647 -34.6646 -34.6646 -34.6645 -34.6645
   -34.6645 -34.6645 -34.6644 -34.6644 -34.6643 -34.6643 -34.6643 -34.6642
   -34.6642 -34.6642 -34.6642 -34.6640 -34.6640 -34.6639 -34.6639 -34.6639
   -34.6638 -34.6637 -34.6636 -34.6636 -34.6635 -34.6634 -34.6634 -34.6633
   -34.6618 -34.6614 -34.6505 -34.6502 -34.6501 -34.6500 -34.6497 -34.6495
   -34.6495 -34.6494 -34.6492 -34.6491 -34.6491 -34.6490 -34.6490 -34.6488
   -34.6487 -34.6485 -34.6484 -34.6482 -34.6481 -34.6478 -34.6477 -34.6475
   -34.6471 -34.6470 -34.6470 -34.6469 -34.6467 -34.6466 -34.6465 -34.6465
   -34.6464 -34.6463 -34.6461 -34.6459 -34.6459 -34.6449 -25.4826 -25.4826
   -25.4822 -25.4820 -25.4735 -25.4731 -25.4527 -25.4522 -25.4401 -25.4401
   -25.4399 -25.4394 -25.3732 -25.3730 -25.3729 -25.3725 -25.3685 -25.3685
   -25.3682 -25.3679 -25.3663 -25.3658 -25.3641 -25.3641 -25.3640 -25.3636
   -25.3460 -25.3460 -25.3458 -25.3458 -25.3458 -25.3456 -25.3455 -25.3453
   -25.3424 -25.3424 -25.3422 -25.3418 -25.3392 -25.3391 -25.3391 -25.3391
   -25.3389 -25.3384 -25.3366 -25.3363 -25.3260 -25.3255 -25.3091 -25.3091
   -25.3089 -25.3086 -25.2970 -25.2966  -1.6337  -1.4383  -1.2739  -1.2726
    -1.0870  -1.0854  -0.5523  -0.4138  -0.4125  -0.3588  -0.3581  -0.2716
    -0.2700  -0.2435  -0.0853  -0.0845  -0.0290   0.0046   0.0056   0.0729
     0.0946   0.0956   0.0978   0.0986   0.1503   0.2175   0.2690   0.2697
     0.2994   0.3019   0.3028   0.3830   0.3932   0.3941   0.4114   0.4486
     6.6610   6.6615   6.6812   6.8877   6.8892   6.8897   7.0900   7.1097
     7.1103   7.3796   7.4459   7.4824   7.4829   7.4967   7.6618   7.6624
     7.7268   7.7667   7.7940   7.7948   7.8608   7.8612   7.8718   7.8728
     7.9419   8.0758   8.2447   8.2453   8.3504   8.3510   8.5302   8.5307
     8.5911   8.6243   8.6259   8.6913   8.7938   8.8536   8.8546   8.8915
     8.8919   8.9610   8.9616   9.0064   9.0565   9.0571   9.3404   9.3990
     9.3997   9.4507   9.4519   9.5826   9.6047   9.6666   9.7073   9.7227
     9.7319   9.7835   9.7843   9.8267   9.8431   9.8436   9.8759   9.8770
     9.9223   9.9473   9.9489  10.0771  10.3322  10.3814  10.3831  10.4048
    10.4053  10.5129  10.5137  10.5371  10.5383  10.6333  10.6773  10.7249
    10.7257  10.7577  10.7806  10.9178  10.9188  10.9193  10.9860  10.9895
    10.9899  10.9958  11.0297  11.0302  11.0773  11.1017  11.1024  11.1647
    11.2520  11.2529  11.2562  11.2579  11.3761  11.3766  11.5270  11.5284
    11.6293  11.8895  11.8903  11.9863  12.1781  12.1787  12.1834  12.1844
    12.2143  12.2150  12.2513  12.2525  12.2665  12.2672  12.3443  12.3589
    12.3599  12.4103  12.4457  12.6188  12.6282  12.7710

          k = 0.2500-0.4330-0.1957 ( 90083 PWs)   bands (ev):

   -61.1675 -61.1673 -61.1659 -61.1655 -61.1655 -61.1650 -61.1624 -61.1619
   -61.1619 -61.1615 -61.1610 -61.1606 -61.1606 -61.1606 -61.1602 -61.1601
   -61.1599 -61.1597 -34.7022 -34.7021 -34.7020 -34.7019 -34.7019 -34.7019
   -34.7018 -34.7017 -34.7017 -34.7017 -34.7017 -34.7017 -34.7016 -34.7016
   -34.7015 -34.7014 -34.7014 -34.7013 -34.7013 -34.7012 -34.7012 -34.7012
   -34.7012 -34.7012 -34.7011 -34.7011 -34.7010 -34.7009 -34.7009 -34.7009
   -34.7007 -34.7007 -34.7006 -34.7006 -34.7006 -34.7006 -34.7005 -34.7005
   -34.7003 -34.7002 -34.7002 -34.7002 -34.7001 -34.7000 -34.6998 -34.6997
   -34.6994 -34.6993 -34.6992 -34.6991 -34.6991 -34.6990 -34.6990 -34.6989
   -34.6987 -34.6986 -34.6986 -34.6985 -34.6984 -34.6984 -34.6984 -34.6984
   -34.6983 -34.6981 -34.6981 -34.6981 -34.6979 -34.6978 -34.6976 -34.6975
   -34.6955 -34.6954 -34.6665 -34.6665 -34.6662 -34.6662 -34.6661 -34.6661
   -34.6660 -34.6660 -34.6660 -34.6660 -34.6659 -34.6658 -34.6658 -34.6657
   -34.6656 -34.6656 -34.6656 -34.6655 -34.6655 -34.6654 -34.6654 -34.6654
   -34.6654 -34.6653 -34.6653 -34.6652 -34.6652 -34.6652 -34.6651 -34.6651
   -34.6651 -34.6651 -34.6650 -34.6650 -34.6650 -34.6649 -34.6649 -34.6648
   -34.6648 -34.6648 -34.6647 -34.6647 -34.6646 -34.6646 -34.6645 -34.6645
   -34.6645 -34.6645 -34.6644 -34.6644 -34.6644 -34.6643 -34.6643 -34.6643
   -34.6642 -34.6642 -34.6642 -34.6640 -34.6640 -34.6640 -34.6639 -34.6639
   -34.6638 -34.6637 -34.6636 -34.6636 -34.6635 -34.6634 -34.6634 -34.6633
   -34.6618 -34.6614 -34.6505 -34.6502 -34.6501 -34.6500 -34.6497 -34.6495
   -34.6495 -34.6494 -34.6492 -34.6491 -34.6491 -34.6490 -34.6490 -34.6488
   -34.6487 -34.6485 -34.6484 -34.6482 -34.6481 -34.6478 -34.6477 -34.6475
   -34.6471 -34.6470 -34.6470 -34.6469 -34.6467 -34.6466 -34.6465 -34.6465
   -34.6464 -34.6463 -34.6461 -34.6459 -34.6459 -34.6449 -25.4826 -25.4826
   -25.4822 -25.4820 -25.4735 -25.4731 -25.4527 -25.4522 -25.4401 -25.4401
   -25.4399 -25.4394 -25.3732 -25.3730 -25.3729 -25.3725 -25.3685 -25.3685
   -25.3682 -25.3679 -25.3663 -25.3658 -25.3641 -25.3641 -25.3640 -25.3636
   -25.3460 -25.3460 -25.3458 -25.3458 -25.3458 -25.3456 -25.3455 -25.3453
   -25.3424 -25.3424 -25.3422 -25.3418 -25.3392 -25.3391 -25.3391 -25.3391
   -25.3389 -25.3384 -25.3366 -25.3363 -25.3260 -25.3255 -25.3091 -25.3091
   -25.3089 -25.3086 -25.2970 -25.2966  -1.6337  -1.4384  -1.2739  -1.2726
    -1.0870  -1.0854  -0.5523  -0.4139  -0.4125  -0.3588  -0.3581  -0.2716
    -0.2700  -0.2435  -0.0853  -0.0845  -0.0290   0.0046   0.0056   0.0728
     0.0946   0.0956   0.0978   0.0987   0.1503   0.2175   0.2690   0.2697
     0.2995   0.3019   0.3028   0.3830   0.3932   0.3942   0.4114   0.4486
     6.6610   6.6615   6.6812   6.8877   6.8892   6.8897   7.0900   7.1097
     7.1104   7.3797   7.4459   7.4824   7.4828   7.4967   7.6619   7.6624
     7.7268   7.7667   7.7940   7.7947   7.8607   7.8613   7.8718   7.8727
     7.9418   8.0759   8.2446   8.2453   8.3505   8.3510   8.5303   8.5306
     8.5913   8.6242   8.6258   8.6914   8.7936   8.8536   8.8547   8.8914
     8.8918   8.9611   8.9617   9.0062   9.0566   9.0572   9.3406   9.3990
     9.3999   9.4508   9.4517   9.5829   9.6047   9.6668   9.7073   9.7225
     9.7317   9.7836   9.7840   9.8266   9.8430   9.8437   9.8759   9.8772
     9.9224   9.9472   9.9487  10.0770  10.3324  10.3813  10.3832  10.4048
    10.4054  10.5129  10.5135  10.5371  10.5382  10.6334  10.6772  10.7251
    10.7256  10.7577  10.7806  10.9174  10.9189  10.9195  10.9861  10.9897
    10.9898  10.9958  11.0296  11.0302  11.0773  11.1016  11.1024  11.1649
    11.2519  11.2530  11.2564  11.2579  11.3760  11.3765  11.5271  11.5284
    11.6294  11.8894  11.8904  11.9861  12.1782  12.1786  12.1833  12.1845
    12.2142  12.2151  12.2515  12.2523  12.2663  12.2672  12.3444  12.3590
    12.3599  12.4102  12.4456  12.6188  12.6285  12.7709

          k = 0.5000-0.0000 0.1957 ( 90083 PWs)   bands (ev):

   -61.1675 -61.1673 -61.1657 -61.1655 -61.1655 -61.1652 -61.1624 -61.1619
   -61.1619 -61.1616 -61.1608 -61.1606 -61.1606 -61.1606 -61.1603 -61.1601
   -61.1599 -61.1597 -34.7022 -34.7021 -34.7020 -34.7019 -34.7019 -34.7019
   -34.7018 -34.7018 -34.7017 -34.7017 -34.7017 -34.7017 -34.7016 -34.7015
   -34.7014 -34.7014 -34.7013 -34.7013 -34.7013 -34.7012 -34.7012 -34.7012
   -34.7012 -34.7011 -34.7011 -34.7011 -34.7010 -34.7010 -34.7009 -34.7008
   -34.7007 -34.7007 -34.7006 -34.7006 -34.7006 -34.7006 -34.7005 -34.7005
   -34.7003 -34.7003 -34.7002 -34.7002 -34.7001 -34.7000 -34.6998 -34.6998
   -34.6993 -34.6993 -34.6992 -34.6991 -34.6991 -34.6990 -34.6990 -34.6989
   -34.6986 -34.6986 -34.6986 -34.6985 -34.6984 -34.6984 -34.6984 -34.6984
   -34.6983 -34.6981 -34.6981 -34.6981 -34.6979 -34.6977 -34.6976 -34.6975
   -34.6955 -34.6954 -34.6665 -34.6665 -34.6662 -34.6662 -34.6661 -34.6661
   -34.6661 -34.6660 -34.6660 -34.6660 -34.6659 -34.6658 -34.6657 -34.6657
   -34.6656 -34.6656 -34.6656 -34.6655 -34.6655 -34.6655 -34.6654 -34.6654
   -34.6654 -34.6653 -34.6653 -34.6652 -34.6652 -34.6652 -34.6651 -34.6651
   -34.6651 -34.6651 -34.6650 -34.6650 -34.6650 -34.6649 -34.6649 -34.6648
   -34.6648 -34.6648 -34.6647 -34.6647 -34.6646 -34.6646 -34.6645 -34.6645
   -34.6645 -34.6645 -34.6644 -34.6644 -34.6644 -34.6643 -34.6643 -34.6643
   -34.6642 -34.6642 -34.6641 -34.6640 -34.6640 -34.6640 -34.6639 -34.6639
   -34.6638 -34.6637 -34.6636 -34.6636 -34.6636 -34.6634 -34.6633 -34.6632
   -34.6618 -34.6614 -34.6505 -34.6502 -34.6501 -34.6500 -34.6496 -34.6496
   -34.6495 -34.6494 -34.6492 -34.6491 -34.6491 -34.6490 -34.6490 -34.6489
   -34.6486 -34.6485 -34.6485 -34.6482 -34.6481 -34.6478 -34.6477 -34.6475
   -34.6472 -34.6470 -34.6470 -34.6469 -34.6467 -34.6466 -34.6465 -34.6465
   -34.6464 -34.6463 -34.6460 -34.6460 -34.6459 -34.6449 -25.4826 -25.4826
   -25.4823 -25.4820 -25.4735 -25.4731 -25.4527 -25.4523 -25.4401 -25.4401
   -25.4398 -25.4394 -25.3732 -25.3730 -25.3729 -25.3725 -25.3685 -25.3685
   -25.3682 -25.3679 -25.3663 -25.3659 -25.3641 -25.3641 -25.3641 -25.3636
   -25.3460 -25.3460 -25.3458 -25.3458 -25.3458 -25.3457 -25.3455 -25.3453
   -25.3424 -25.3424 -25.3421 -25.3418 -25.3393 -25.3391 -25.3391 -25.3391
   -25.3388 -25.3384 -25.3366 -25.3363 -25.3260 -25.3255 -25.3091 -25.3091
   -25.3088 -25.3086 -25.2970 -25.2966  -1.6337  -1.4383  -1.2738  -1.2727
    -1.0869  -1.0855  -0.5523  -0.4137  -0.4127  -0.3585  -0.3584  -0.2715
    -0.2702  -0.2436  -0.0851  -0.0847  -0.0289   0.0046   0.0058   0.0729
     0.0946   0.0957   0.0979   0.0987   0.1502   0.2174   0.2690   0.2698
     0.2994   0.3019   0.3027   0.3830   0.3932   0.3940   0.4113   0.4488
     6.6608   6.6616   6.6812   6.8878   6.8890   6.8897   7.0902   7.1098
     7.1102   7.3796   7.4459   7.4823   7.4830   7.4966   7.6619   7.6625
     7.7267   7.7666   7.7940   7.7949   7.8609   7.8613   7.8718   7.8729
     7.9421   8.0759   8.2445   8.2453   8.3503   8.3511   8.5302   8.5310
     8.5908   8.6244   8.6255   8.6913   8.7939   8.8537   8.8542   8.8916
     8.8917   8.9610   8.9615   9.0064   9.0562   9.0575   9.3402   9.3990
     9.3997   9.4509   9.4518   9.5824   9.6047   9.6666   9.7074   9.7227
     9.7319   9.7834   9.7844   9.8268   9.8430   9.8439   9.8761   9.8768
     9.9225   9.9476   9.9484  10.0772  10.3321  10.3816  10.3828  10.4047
    10.4054  10.5128  10.5140  10.5374  10.5382  10.6328  10.6777  10.7245
    10.7259  10.7576  10.7804  10.9177  10.9188  10.9194  10.9861  10.9895
    10.9899  10.9962  11.0297  11.0302  11.0778  11.1018  11.1023  11.1647
    11.2521  11.2528  11.2565  11.2578  11.3760  11.3768  11.5269  11.5285
    11.6291  11.8895  11.8903  11.9864  12.1782  12.1788  12.1833  12.1841
    12.2144  12.2150  12.2514  12.2525  12.2666  12.2673  12.3443  12.3589
    12.3599  12.4104  12.4456  12.6188  12.6280  12.7708

          k =-0.5000 0.0000 0.1957 ( 90083 PWs)   bands (ev):

   -61.1675 -61.1673 -61.1657 -61.1655 -61.1655 -61.1652 -61.1624 -61.1619
   -61.1619 -61.1616 -61.1608 -61.1606 -61.1606 -61.1606 -61.1603 -61.1601
   -61.1599 -61.1597 -34.7022 -34.7021 -34.7020 -34.7019 -34.7019 -34.7019
   -34.7018 -34.7018 -34.7017 -34.7017 -34.7017 -34.7017 -34.7016 -34.7015
   -34.7014 -34.7014 -34.7013 -34.7013 -34.7013 -34.7012 -34.7012 -34.7012
   -34.7012 -34.7011 -34.7011 -34.7011 -34.7010 -34.7010 -34.7009 -34.7008
   -34.7007 -34.7007 -34.7006 -34.7006 -34.7006 -34.7006 -34.7005 -34.7005
   -34.7004 -34.7003 -34.7002 -34.7002 -34.7001 -34.7000 -34.6998 -34.6998
   -34.6993 -34.6993 -34.6992 -34.6991 -34.6991 -34.6990 -34.6990 -34.6989
   -34.6986 -34.6986 -34.6986 -34.6985 -34.6984 -34.6984 -34.6984 -34.6984
   -34.6983 -34.6981 -34.6981 -34.6981 -34.6979 -34.6977 -34.6976 -34.6975
   -34.6955 -34.6954 -34.6665 -34.6665 -34.6662 -34.6662 -34.6661 -34.6661
   -34.6660 -34.6660 -34.6660 -34.6660 -34.6659 -34.6658 -34.6658 -34.6657
   -34.6656 -34.6656 -34.6656 -34.6655 -34.6655 -34.6655 -34.6654 -34.6654
   -34.6654 -34.6653 -34.6653 -34.6652 -34.6652 -34.6652 -34.6651 -34.6651
   -34.6651 -34.6651 -34.6650 -34.6650 -34.6650 -34.6649 -34.6649 -34.6648
   -34.6648 -34.6648 -34.6647 -34.6647 -34.6646 -34.6646 -34.6645 -34.6645
   -34.6645 -34.6645 -34.6644 -34.6644 -34.6643 -34.6643 -34.6643 -34.6643
   -34.6642 -34.6642 -34.6641 -34.6640 -34.6640 -34.6640 -34.6639 -34.6639
   -34.6638 -34.6637 -34.6636 -34.6636 -34.6636 -34.6634 -34.6633 -34.6632
   -34.6618 -34.6614 -34.6505 -34.6502 -34.6501 -34.6500 -34.6496 -34.6496
   -34.6495 -34.6494 -34.6492 -34.6491 -34.6491 -34.6490 -34.6490 -34.6489
   -34.6486 -34.6485 -34.6485 -34.6482 -34.6481 -34.6478 -34.6477 -34.6475
   -34.6472 -34.6470 -34.6470 -34.6469 -34.6467 -34.6466 -34.6465 -34.6465
   -34.6464 -34.6463 -34.6460 -34.6460 -34.6459 -34.6449 -25.4826 -25.4826
   -25.4823 -25.4820 -25.4735 -25.4731 -25.4527 -25.4523 -25.4401 -25.4401
   -25.4398 -25.4394 -25.3732 -25.3730 -25.3729 -25.3725 -25.3685 -25.3685
   -25.3682 -25.3679 -25.3663 -25.3659 -25.3641 -25.3641 -25.3641 -25.3636
   -25.3460 -25.3460 -25.3458 -25.3458 -25.3458 -25.3457 -25.3455 -25.3453
   -25.3424 -25.3424 -25.3421 -25.3418 -25.3393 -25.3391 -25.3391 -25.3391
   -25.3388 -25.3384 -25.3366 -25.3363 -25.3260 -25.3255 -25.3091 -25.3091
   -25.3088 -25.3086 -25.2970 -25.2966  -1.6337  -1.4383  -1.2738  -1.2727
    -1.0869  -1.0855  -0.5523  -0.4137  -0.4127  -0.3585  -0.3584  -0.2715
    -0.2702  -0.2436  -0.0851  -0.0847  -0.0289   0.0046   0.0058   0.0729
     0.0946   0.0956   0.0979   0.0987   0.1502   0.2174   0.2690   0.2698
     0.2994   0.3019   0.3026   0.3830   0.3932   0.3940   0.4113   0.4487
     6.6608   6.6616   6.6812   6.8878   6.8889   6.8897   7.0902   7.1098
     7.1103   7.3797   7.4458   7.4823   7.4829   7.4967   7.6620   7.6624
     7.7266   7.7666   7.7941   7.7948   7.8608   7.8615   7.8718   7.8726
     7.9420   8.0760   8.2443   8.2453   8.3506   8.3510   8.5301   8.5310
     8.5911   8.6243   8.6255   8.6916   8.7935   8.8538   8.8543   8.8915
     8.8917   8.9612   8.9615   9.0060   9.0565   9.0574   9.3405   9.3992
     9.3998   9.4509   9.4514   9.5829   9.6047   9.6669   9.7074   9.7221
     9.7315   9.7835   9.7840   9.8264   9.8430   9.8440   9.8760   9.8770
     9.9227   9.9475   9.9482  10.0770  10.3324  10.3816  10.3830  10.4047
    10.4056  10.5127  10.5137  10.5375  10.5379  10.6331  10.6775  10.7246
    10.7257  10.7576  10.7804  10.9171  10.9188  10.9196  10.9862  10.9896
    10.9899  10.9963  11.0296  11.0302  11.0777  11.1016  11.1025  11.1651
    11.2521  11.2529  11.2568  11.2578  11.3756  11.3766  11.5270  11.5286
    11.6292  11.8892  11.8904  11.9860  12.1782  12.1787  12.1831  12.1843
    12.2144  12.2152  12.2516  12.2523  12.2663  12.2674  12.3443  12.3590
    12.3598  12.4103  12.4455  12.6188  12.6285  12.7707

          k =-0.2500 0.1443 0.1957 ( 89997 PWs)   bands (ev):

   -61.1684 -61.1684 -61.1650 -61.1648 -61.1634 -61.1634 -61.1634 -61.1633
   -61.1619 -61.1616 -61.1616 -61.1613 -61.1611 -61.1608 -61.1598 -61.1598
   -61.1596 -61.1594 -34.7023 -34.7021 -34.7021 -34.7021 -34.7020 -34.7020
   -34.7020 -34.7019 -34.7019 -34.7019 -34.7017 -34.7016 -34.7016 -34.7016
   -34.7015 -34.7015 -34.7015 -34.7014 -34.7014 -34.7014 -34.7014 -34.7013
   -34.7013 -34.7012 -34.7011 -34.7011 -34.7010 -34.7010 -34.7010 -34.7010
   -34.7009 -34.7008 -34.7006 -34.7006 -34.7003 -34.7002 -34.7002 -34.7001
   -34.7001 -34.6998 -34.6997 -34.6997 -34.6997 -34.6995 -34.6995 -34.6993
   -34.6993 -34.6992 -34.6990 -34.6990 -34.6990 -34.6989 -34.6989 -34.6989
   -34.6989 -34.6989 -34.6987 -34.6986 -34.6985 -34.6985 -34.6985 -34.6985
   -34.6984 -34.6983 -34.6983 -34.6982 -34.6981 -34.6980 -34.6978 -34.6976
   -34.6955 -34.6954 -34.6667 -34.6667 -34.6662 -34.6661 -34.6661 -34.6660
   -34.6660 -34.6659 -34.6659 -34.6658 -34.6658 -34.6657 -34.6657 -34.6657
   -34.6657 -34.6656 -34.6656 -34.6655 -34.6654 -34.6654 -34.6654 -34.6654
   -34.6653 -34.6653 -34.6653 -34.6653 -34.6652 -34.6652 -34.6652 -34.6652
   -34.6651 -34.6651 -34.6651 -34.6650 -34.6650 -34.6649 -34.6649 -34.6649
   -34.6649 -34.6648 -34.6648 -34.6648 -34.6647 -34.6647 -34.6646 -34.6646
   -34.6646 -34.6645 -34.6645 -34.6644 -34.6643 -34.6643 -34.6642 -34.6642
   -34.6642 -34.6641 -34.6641 -34.6641 -34.6640 -34.6640 -34.6639 -34.6638
   -34.6638 -34.6637 -34.6635 -34.6635 -34.6634 -34.6634 -34.6633 -34.6632
   -34.6617 -34.6613 -34.6507 -34.6502 -34.6500 -34.6498 -34.6497 -34.6495
   -34.6494 -34.6493 -34.6493 -34.6492 -34.6491 -34.6490 -34.6490 -34.6489
   -34.6487 -34.6485 -34.6485 -34.6484 -34.6482 -34.6477 -34.6476 -34.6473
   -34.6472 -34.6469 -34.6469 -34.6468 -34.6468 -34.6467 -34.6465 -34.6465
   -34.6464 -34.6463 -34.6461 -34.6459 -34.6459 -34.6449 -25.4767 -25.4762
   -25.4587 -25.4587 -25.4584 -25.4581 -25.4554 -25.4554 -25.4551 -25.4547
   -25.4170 -25.4170 -25.4168 -25.4164 -25.3931 -25.3931 -25.3927 -25.3926
   -25.3895 -25.3890 -25.3785 -25.3782 -25.3602 -25.3600 -25.3535 -25.3535
   -25.3533 -25.3533 -25.3444 -25.3444 -25.3442 -25.3441 -25.3419 -25.3416
   -25.3354 -25.3354 -25.3352 -25.3352 -25.3351 -25.3350 -25.3349 -25.3349
   -25.3317 -25.3312 -25.3232 -25.3232 -25.3228 -25.3227 -25.3110 -25.3106
   -25.3009 -25.3005 -25.2903 -25.2899  -1.8270  -1.6288  -1.1081  -0.9266
    -0.8036  -0.8023  -0.6567  -0.6357  -0.6341  -0.3305  -0.3245  -0.3232
    -0.2706  -0.1919  -0.1905  -0.1698  -0.1088  -0.1084  -0.0555  -0.0149
     0.1120   0.1126   0.1389   0.1395   0.2130   0.2284   0.2297   0.2823
     0.2836   0.2929   0.2937   0.3376   0.4302   0.4310   0.4849   0.4857
     6.4386   6.7458   6.9812   7.0858   7.0862   7.2632   7.2696   7.3160
     7.3165   7.3196   7.3204   7.4300   7.4310   7.4807   7.4817   7.6331
     7.6342   7.7696   7.7702   7.8985   7.9376   7.9409   7.9411   7.9898
     8.0865   8.0870   8.1297   8.1301   8.1694   8.1707   8.4276   8.4282
     8.5140   8.5460   8.5472   8.5479   8.6720   8.7140   8.7146   8.8990
     8.8994   9.0078   9.0094   9.0237   9.0242   9.0507   9.1164   9.1175
     9.1200   9.1206   9.1855   9.3067   9.3078   9.5536   9.6745   9.6752
     9.8057   9.8063   9.8173   9.8190   9.9151   9.9382   9.9649   9.9651
     9.9680   9.9699  10.0240  10.1867  10.1874  10.1895  10.2143  10.5610
    10.5947  10.6173  10.6361  10.6724  10.6734  10.6972  10.8983  10.8988
    10.9252  10.9253  10.9540  10.9546  10.9856  11.0619  11.0675  11.0688
    11.0754  11.1061  11.1065  11.1522  11.1530  11.2012  11.2499  11.2507
    11.2650  11.2657  11.2757  11.4197  11.4750  11.5326  11.5331  11.6072
    11.6128  11.7157  11.7243  11.8927  11.9070  11.9220  11.9966  11.9973
    12.0106  12.0434  12.0437  12.0727  12.0732  12.0831  12.1495  12.1499
    12.5867  12.5868  12.7629  12.7631  12.8116  13.1167

          k =-0.2500-0.1443-0.1957 ( 89997 PWs)   bands (ev):

   -61.1684 -61.1684 -61.1648 -61.1648 -61.1639 -61.1634 -61.1634 -61.1631
   -61.1616 -61.1616 -61.1616 -61.1615 -61.1611 -61.1608 -61.1598 -61.1598
   -61.1596 -61.1594 -34.7023 -34.7022 -34.7021 -34.7021 -34.7020 -34.7020
   -34.7020 -34.7019 -34.7019 -34.7018 -34.7017 -34.7017 -34.7016 -34.7016
   -34.7015 -34.7015 -34.7015 -34.7014 -34.7014 -34.7014 -34.7013 -34.7013
   -34.7013 -34.7012 -34.7012 -34.7011 -34.7010 -34.7010 -34.7010 -34.7009
   -34.7008 -34.7008 -34.7006 -34.7006 -34.7003 -34.7002 -34.7002 -34.7001
   -34.7001 -34.6998 -34.6997 -34.6997 -34.6997 -34.6995 -34.6994 -34.6993
   -34.6993 -34.6992 -34.6991 -34.6990 -34.6990 -34.6989 -34.6989 -34.6989
   -34.6989 -34.6988 -34.6987 -34.6986 -34.6986 -34.6985 -34.6985 -34.6984
   -34.6984 -34.6984 -34.6983 -34.6982 -34.6981 -34.6980 -34.6978 -34.6976
   -34.6955 -34.6955 -34.6667 -34.6667 -34.6661 -34.6661 -34.6661 -34.6660
   -34.6660 -34.6659 -34.6658 -34.6658 -34.6658 -34.6657 -34.6657 -34.6657
   -34.6657 -34.6656 -34.6656 -34.6655 -34.6655 -34.6654 -34.6654 -34.6654
   -34.6653 -34.6653 -34.6653 -34.6653 -34.6653 -34.6652 -34.6652 -34.6652
   -34.6651 -34.6651 -34.6651 -34.6650 -34.6650 -34.6650 -34.6649 -34.6649
   -34.6649 -34.6648 -34.6648 -34.6647 -34.6647 -34.6647 -34.6646 -34.6646
   -34.6646 -34.6645 -34.6645 -34.6644 -34.6644 -34.6643 -34.6643 -34.6642
   -34.6642 -34.6641 -34.6641 -34.6641 -34.6640 -34.6640 -34.6639 -34.6638
   -34.6638 -34.6637 -34.6636 -34.6635 -34.6634 -34.6634 -34.6633 -34.6632
   -34.6618 -34.6613 -34.6507 -34.6502 -34.6500 -34.6497 -34.6497 -34.6495
   -34.6494 -34.6493 -34.6493 -34.6492 -34.6491 -34.6490 -34.6490 -34.6489
   -34.6487 -34.6485 -34.6485 -34.6484 -34.6482 -34.6477 -34.6476 -34.6473
   -34.6473 -34.6470 -34.6469 -34.6468 -34.6467 -34.6467 -34.6465 -34.6464
   -34.6464 -34.6463 -34.6462 -34.6459 -34.6459 -34.6449 -25.4767 -25.4762
   -25.4587 -25.4587 -25.4584 -25.4581 -25.4554 -25.4554 -25.4551 -25.4547
   -25.4170 -25.4170 -25.4167 -25.4164 -25.3931 -25.3931 -25.3928 -25.3925
   -25.3895 -25.3891 -25.3785 -25.3782 -25.3602 -25.3600 -25.3535 -25.3535
   -25.3533 -25.3532 -25.3444 -25.3444 -25.3442 -25.3441 -25.3419 -25.3416
   -25.3354 -25.3354 -25.3352 -25.3352 -25.3352 -25.3350 -25.3349 -25.3348
   -25.3317 -25.3312 -25.3232 -25.3232 -25.3230 -25.3226 -25.3110 -25.3106
   -25.3009 -25.3005 -25.2903 -25.2899  -1.8270  -1.6288  -1.1080  -0.9265
    -0.8036  -0.8025  -0.6567  -0.6357  -0.6343  -0.3305  -0.3245  -0.3234
    -0.2707  -0.1918  -0.1906  -0.1695  -0.1088  -0.1082  -0.0554  -0.0150
     0.1120   0.1128   0.1389   0.1396   0.2128   0.2284   0.2296   0.2823
     0.2837   0.2929   0.2938   0.3372   0.4302   0.4309   0.4849   0.4858
     6.4386   6.7456   6.9809   7.0860   7.0863   7.2633   7.2695   7.3162
     7.3165   7.3195   7.3206   7.4301   7.4309   7.4807   7.4815   7.6334
     7.6340   7.7694   7.7703   7.8986   7.9378   7.9409   7.9414   7.9901
     8.0863   8.0870   8.1300   8.1301   8.1694   8.1708   8.4275   8.4281
     8.5145   8.5459   8.5473   8.5478   8.6717   8.7138   8.7140   8.8991
     8.8995   9.0079   9.0089   9.0235   9.0241   9.0510   9.1167   9.1177
     9.1199   9.1203   9.1851   9.3067   9.3076   9.5534   9.6744   9.6746
     9.8055   9.8059   9.8178   9.8190   9.9150   9.9386   9.9649   9.9652
     9.9680   9.9688  10.0245  10.1870  10.1872  10.1897  10.2147  10.5617
    10.5945  10.6170  10.6369  10.6731  10.6735  10.6970  10.8987  10.8997
    10.9244  10.9257  10.9541  10.9547  10.9847  11.0616  11.0677  11.0687
    11.0741  11.1060  11.1066  11.1527  11.1534  11.2010  11.2500  11.2505
    11.2641  11.2656  11.2756  11.4208  11.4762  11.5329  11.5332  11.6073
    11.6118  11.7152  11.7244  11.8928  11.9071  11.9216  11.9970  11.9976
    12.0101  12.0439  12.0443  12.0722  12.0731  12.0827  12.1493  12.1501
    12.5867  12.5869  12.7629  12.7632  12.8112  13.1167

          k = 0.2500 0.1443-0.1957 ( 89997 PWs)   bands (ev):

   -61.1684 -61.1684 -61.1648 -61.1648 -61.1639 -61.1634 -61.1634 -61.1631
   -61.1616 -61.1616 -61.1616 -61.1615 -61.1611 -61.1608 -61.1598 -61.1598
   -61.1596 -61.1594 -34.7023 -34.7022 -34.7021 -34.7021 -34.7020 -34.7020
   -34.7020 -34.7019 -34.7019 -34.7018 -34.7017 -34.7017 -34.7016 -34.7016
   -34.7015 -34.7015 -34.7015 -34.7014 -34.7014 -34.7014 -34.7013 -34.7013
   -34.7013 -34.7012 -34.7012 -34.7011 -34.7010 -34.7010 -34.7010 -34.7009
   -34.7008 -34.7008 -34.7006 -34.7006 -34.7003 -34.7002 -34.7002 -34.7001
   -34.7001 -34.6998 -34.6997 -34.6997 -34.6997 -34.6995 -34.6994 -34.6993
   -34.6993 -34.6992 -34.6991 -34.6990 -34.6990 -34.6989 -34.6989 -34.6989
   -34.6989 -34.6988 -34.6987 -34.6986 -34.6986 -34.6985 -34.6985 -34.6984
   -34.6984 -34.6984 -34.6983 -34.6982 -34.6981 -34.6980 -34.6978 -34.6976
   -34.6955 -34.6955 -34.6667 -34.6667 -34.6662 -34.6661 -34.6661 -34.6660
   -34.6659 -34.6659 -34.6658 -34.6658 -34.6658 -34.6657 -34.6657 -34.6657
   -34.6657 -34.6656 -34.6656 -34.6655 -34.6655 -34.6654 -34.6654 -34.6654
   -34.6653 -34.6653 -34.6653 -34.6653 -34.6652 -34.6652 -34.6652 -34.6652
   -34.6651 -34.6651 -34.6651 -34.6650 -34.6650 -34.6650 -34.6649 -34.6649
   -34.6648 -34.6648 -34.6648 -34.6647 -34.6647 -34.6647 -34.6646 -34.6646
   -34.6646 -34.6645 -34.6644 -34.6644 -34.6643 -34.6643 -34.6642 -34.6642
   -34.6642 -34.6641 -34.6641 -34.6641 -34.6640 -34.6640 -34.6639 -34.6638
   -34.6638 -34.6637 -34.6636 -34.6635 -34.6634 -34.6634 -34.6633 -34.6632
   -34.6618 -34.6613 -34.6507 -34.6502 -34.6500 -34.6497 -34.6497 -34.6495
   -34.6494 -34.6493 -34.6493 -34.6492 -34.6491 -34.6490 -34.6490 -34.6489
   -34.6487 -34.6485 -34.6485 -34.6484 -34.6482 -34.6476 -34.6476 -34.6473
   -34.6473 -34.6470 -34.6469 -34.6468 -34.6467 -34.6467 -34.6465 -34.6465
   -34.6464 -34.6463 -34.6462 -34.6459 -34.6459 -34.6449 -25.4767 -25.4762
   -25.4587 -25.4587 -25.4584 -25.4581 -25.4554 -25.4554 -25.4551 -25.4547
   -25.4170 -25.4170 -25.4167 -25.4164 -25.3931 -25.3931 -25.3928 -25.3925
   -25.3895 -25.3891 -25.3785 -25.3782 -25.3602 -25.3600 -25.3535 -25.3535
   -25.3533 -25.3532 -25.3444 -25.3444 -25.3442 -25.3441 -25.3419 -25.3416
   -25.3354 -25.3354 -25.3352 -25.3352 -25.3352 -25.3350 -25.3349 -25.3348
   -25.3317 -25.3312 -25.3232 -25.3232 -25.3230 -25.3226 -25.3110 -25.3106
   -25.3009 -25.3005 -25.2903 -25.2899  -1.8270  -1.6288  -1.1080  -0.9265
    -0.8036  -0.8025  -0.6567  -0.6357  -0.6343  -0.3305  -0.3245  -0.3234
    -0.2707  -0.1918  -0.1906  -0.1695  -0.1088  -0.1082  -0.0553  -0.0150
     0.1120   0.1128   0.1389   0.1395   0.2128   0.2284   0.2297   0.2824
     0.2836   0.2929   0.2939   0.3372   0.4302   0.4310   0.4849   0.4857
     6.4386   6.7457   6.9808   7.0858   7.0862   7.2632   7.2696   7.3163
     7.3167   7.3197   7.3205   7.4299   7.4311   7.4808   7.4818   7.6331
     7.6342   7.7697   7.7702   7.8985   7.9379   7.9405   7.9408   7.9901
     8.0871   8.0872   8.1289   8.1299   8.1691   8.1705   8.4282   8.4292
     8.5145   8.5466   8.5469   8.5475   8.6713   8.7137   8.7142   8.8991
     8.8996   9.0083   9.0085   9.0232   9.0241   9.0510   9.1168   9.1176
     9.1196   9.1204   9.1856   9.3063   9.3072   9.5533   9.6748   9.6757
     9.8055   9.8061   9.8175   9.8184   9.9149   9.9387   9.9647   9.9651
     9.9680   9.9685  10.0245  10.1870  10.1873  10.1899  10.2146  10.5617
    10.5945  10.6170  10.6368  10.6725  10.6735  10.6964  10.8989  10.8993
    10.9250  10.9256  10.9541  10.9549  10.9853  11.0621  11.0677  11.0685
    11.0743  11.1062  11.1069  11.1522  11.1533  11.2011  11.2504  11.2508
    11.2648  11.2650  11.2755  11.4208  11.4762  11.5325  11.5335  11.6067
    11.6118  11.7151  11.7244  11.8924  11.9071  11.9216  11.9969  11.9975
    12.0107  12.0439  12.0443  12.0724  12.0734  12.0824  12.1491  12.1498
    12.5866  12.5868  12.7629  12.7633  12.8116  13.1165

          k = 0.0000-0.2887 0.1957 ( 89997 PWs)   bands (ev):

   -61.1684 -61.1684 -61.1649 -61.1648 -61.1636 -61.1634 -61.1634 -61.1632
   -61.1618 -61.1616 -61.1616 -61.1613 -61.1611 -61.1608 -61.1598 -61.1598
   -61.1596 -61.1594 -34.7023 -34.7022 -34.7021 -34.7021 -34.7020 -34.7020
   -34.7019 -34.7019 -34.7019 -34.7019 -34.7017 -34.7017 -34.7017 -34.7016
   -34.7015 -34.7015 -34.7015 -34.7014 -34.7014 -34.7014 -34.7013 -34.7013
   -34.7013 -34.7012 -34.7012 -34.7011 -34.7011 -34.7010 -34.7010 -34.7009
   -34.7009 -34.7007 -34.7006 -34.7005 -34.7004 -34.7002 -34.7002 -34.7001
   -34.7001 -34.6998 -34.6997 -34.6997 -34.6997 -34.6995 -34.6993 -34.6993
   -34.6993 -34.6991 -34.6991 -34.6990 -34.6990 -34.6989 -34.6989 -34.6989
   -34.6989 -34.6988 -34.6988 -34.6986 -34.6986 -34.6985 -34.6985 -34.6985
   -34.6985 -34.6984 -34.6983 -34.6982 -34.6981 -34.6980 -34.6978 -34.6976
   -34.6955 -34.6954 -34.6667 -34.6667 -34.6661 -34.6661 -34.6661 -34.6660
   -34.6660 -34.6659 -34.6658 -34.6658 -34.6658 -34.6657 -34.6657 -34.6657
   -34.6657 -34.6656 -34.6656 -34.6655 -34.6654 -34.6654 -34.6654 -34.6653
   -34.6653 -34.6653 -34.6653 -34.6653 -34.6652 -34.6652 -34.6652 -34.6652
   -34.6651 -34.6651 -34.6650 -34.6650 -34.6650 -34.6650 -34.6649 -34.6649
   -34.6649 -34.6649 -34.6648 -34.6647 -34.6647 -34.6647 -34.6647 -34.6646
   -34.6646 -34.6645 -34.6645 -34.6644 -34.6643 -34.6643 -34.6643 -34.6642
   -34.6642 -34.6641 -34.6641 -34.6641 -34.6640 -34.6640 -34.6639 -34.6638
   -34.6638 -34.6637 -34.6635 -34.6635 -34.6634 -34.6634 -34.6633 -34.6632
   -34.6617 -34.6613 -34.6507 -34.6502 -34.6500 -34.6497 -34.6497 -34.6495
   -34.6494 -34.6493 -34.6492 -34.6492 -34.6491 -34.6490 -34.6490 -34.6489
   -34.6487 -34.6485 -34.6485 -34.6484 -34.6482 -34.6477 -34.6476 -34.6473
   -34.6473 -34.6470 -34.6469 -34.6468 -34.6467 -34.6467 -34.6466 -34.6465
   -34.6464 -34.6463 -34.6462 -34.6459 -34.6459 -34.6449 -25.4767 -25.4762
   -25.4587 -25.4587 -25.4584 -25.4581 -25.4554 -25.4554 -25.4551 -25.4547
   -25.4170 -25.4170 -25.4168 -25.4164 -25.3931 -25.3931 -25.3928 -25.3926
   -25.3895 -25.3891 -25.3785 -25.3782 -25.3602 -25.3600 -25.3535 -25.3535
   -25.3533 -25.3533 -25.3444 -25.3444 -25.3442 -25.3441 -25.3419 -25.3416
   -25.3354 -25.3354 -25.3352 -25.3352 -25.3352 -25.3350 -25.3349 -25.3348
   -25.3317 -25.3312 -25.3232 -25.3232 -25.3229 -25.3227 -25.3110 -25.3106
   -25.3009 -25.3005 -25.2903 -25.2899  -1.8270  -1.6288  -1.1080  -0.9266
    -0.8037  -0.8022  -0.6567  -0.6358  -0.6341  -0.3305  -0.3246  -0.3232
    -0.2707  -0.1919  -0.1905  -0.1697  -0.1090  -0.1081  -0.0554  -0.0150
     0.1119   0.1128   0.1388   0.1396   0.2129   0.2284   0.2297   0.2823
     0.2837   0.2928   0.2938   0.3374   0.4302   0.4310   0.4848   0.4857
     6.4386   6.7457   6.9810   7.0859   7.0863   7.2632   7.2695   7.3160
     7.3167   7.3193   7.3208   7.4298   7.4312   7.4806   7.4817   7.6332
     7.6341   7.7695   7.7703   7.8986   7.9376   7.9409   7.9413   7.9899
     8.0863   8.0870   8.1298   8.1301   8.1694   8.1707   8.4274   8.4283
     8.5143   8.5459   8.5471   8.5480   8.6719   8.7139   8.7143   8.8988
     8.8997   9.0078   9.0092   9.0237   9.0241   9.0509   9.1161   9.1179
     9.1198   9.1207   9.1853   9.3063   9.3080   9.5535   9.6745   9.6748
     9.8055   9.8062   9.8172   9.8194   9.9150   9.9384   9.9648   9.9652
     9.9678   9.9696  10.0243  10.1868  10.1874  10.1896  10.2145  10.5614
    10.5946  10.6172  10.6365  10.6727  10.6735  10.6971  10.8985  10.8993
    10.9249  10.9254  10.9537  10.9549  10.9851  11.0618  11.0674  11.0690
    11.0747  11.1061  11.1066  11.1521  11.1535  11.2011  11.2498  11.2507
    11.2649  11.2654  11.2757  11.4203  11.4756  11.5327  11.5332  11.6073
    11.6123  11.7154  11.7244  11.8927  11.9071  11.9218  11.9966  11.9976
    12.0104  12.0434  12.0441  12.0723  12.0733  12.0829  12.1493  12.1500
    12.5867  12.5868  12.7629  12.7632  12.8114  13.1167

          k = 0.0000 0.2887 0.1957 ( 89997 PWs)   bands (ev):

   -61.1684 -61.1684 -61.1649 -61.1648 -61.1636 -61.1634 -61.1634 -61.1632
   -61.1618 -61.1616 -61.1616 -61.1613 -61.1611 -61.1608 -61.1598 -61.1598
   -61.1596 -61.1594 -34.7023 -34.7022 -34.7021 -34.7021 -34.7020 -34.7020
   -34.7019 -34.7019 -34.7019 -34.7019 -34.7017 -34.7017 -34.7017 -34.7016
   -34.7015 -34.7015 -34.7015 -34.7014 -34.7014 -34.7014 -34.7013 -34.7013
   -34.7013 -34.7012 -34.7012 -34.7011 -34.7011 -34.7010 -34.7010 -34.7009
   -34.7009 -34.7007 -34.7006 -34.7005 -34.7004 -34.7002 -34.7002 -34.7001
   -34.7001 -34.6998 -34.6997 -34.6997 -34.6997 -34.6995 -34.6993 -34.6993
   -34.6993 -34.6991 -34.6991 -34.6990 -34.6990 -34.6989 -34.6989 -34.6989
   -34.6989 -34.6988 -34.6988 -34.6986 -34.6986 -34.6985 -34.6985 -34.6985
   -34.6985 -34.6984 -34.6983 -34.6982 -34.6981 -34.6980 -34.6978 -34.6976
   -34.6955 -34.6954 -34.6667 -34.6667 -34.6661 -34.6661 -34.6661 -34.6660
   -34.6660 -34.6659 -34.6658 -34.6658 -34.6658 -34.6657 -34.6657 -34.6657
   -34.6657 -34.6656 -34.6656 -34.6655 -34.6654 -34.6654 -34.6654 -34.6654
   -34.6653 -34.6653 -34.6653 -34.6652 -34.6652 -34.6652 -34.6652 -34.6652
   -34.6651 -34.6651 -34.6650 -34.6650 -34.6650 -34.6650 -34.6649 -34.6649
   -34.6649 -34.6648 -34.6648 -34.6647 -34.6647 -34.6647 -34.6647 -34.6646
   -34.6646 -34.6645 -34.6645 -34.6644 -34.6644 -34.6643 -34.6642 -34.6642
   -34.6642 -34.6641 -34.6641 -34.6641 -34.6640 -34.6640 -34.6640 -34.6638
   -34.6638 -34.6637 -34.6635 -34.6635 -34.6634 -34.6634 -34.6633 -34.6632
   -34.6617 -34.6613 -34.6507 -34.6502 -34.6500 -34.6497 -34.6497 -34.6495
   -34.6494 -34.6493 -34.6492 -34.6492 -34.6491 -34.6490 -34.6490 -34.6489
   -34.6487 -34.6485 -34.6485 -34.6484 -34.6482 -34.6477 -34.6476 -34.6473
   -34.6473 -34.6470 -34.6469 -34.6468 -34.6467 -34.6467 -34.6466 -34.6465
   -34.6464 -34.6463 -34.6462 -34.6459 -34.6459 -34.6449 -25.4767 -25.4762
   -25.4587 -25.4587 -25.4584 -25.4581 -25.4554 -25.4554 -25.4551 -25.4547
   -25.4170 -25.4170 -25.4168 -25.4164 -25.3931 -25.3931 -25.3928 -25.3926
   -25.3895 -25.3891 -25.3785 -25.3782 -25.3602 -25.3600 -25.3535 -25.3535
   -25.3533 -25.3533 -25.3444 -25.3444 -25.3442 -25.3441 -25.3419 -25.3416
   -25.3354 -25.3354 -25.3352 -25.3352 -25.3352 -25.3350 -25.3349 -25.3348
   -25.3317 -25.3312 -25.3232 -25.3232 -25.3229 -25.3227 -25.3110 -25.3106
   -25.3009 -25.3005 -25.2903 -25.2899  -1.8270  -1.6288  -1.1080  -0.9266
    -0.8037  -0.8022  -0.6567  -0.6358  -0.6341  -0.3305  -0.3246  -0.3232
    -0.2707  -0.1919  -0.1905  -0.1697  -0.1090  -0.1081  -0.0554  -0.0150
     0.1119   0.1128   0.1388   0.1396   0.2129   0.2284   0.2297   0.2823
     0.2837   0.2928   0.2938   0.3374   0.4302   0.4310   0.4849   0.4857
     6.4386   6.7458   6.9809   7.0857   7.0863   7.2632   7.2695   7.3163
     7.3167   7.3194   7.3208   7.4297   7.4312   7.4808   7.4818   7.6332
     7.6342   7.7694   7.7703   7.8985   7.9379   7.9404   7.9411   7.9900
     8.0870   8.0872   8.1290   8.1299   8.1691   8.1705   8.4282   8.4289
     8.5142   8.5466   8.5470   8.5477   8.6712   8.7136   8.7144   8.8989
     8.9001   9.0081   9.0087   9.0232   9.0241   9.0509   9.1166   9.1177
     9.1198   9.1207   9.1856   9.3059   9.3076   9.5534   9.6741   9.6761
     9.8054   9.8068   9.8177   9.8184   9.9150   9.9384   9.9647   9.9650
     9.9679   9.9690  10.0243  10.1867  10.1875  10.1898  10.2145  10.5614
    10.5946  10.6172  10.6365  10.6727  10.6735  10.6970  10.8984  10.8993
    10.9247  10.9256  10.9537  10.9550  10.9853  11.0620  11.0676  11.0684
    11.0746  11.1060  11.1074  11.1518  11.1533  11.2011  11.2502  11.2507
    11.2646  11.2650  11.2756  11.4203  11.4756  11.5330  11.5334  11.6069
    11.6122  11.7154  11.7244  11.8927  11.9071  11.9218  11.9966  11.9972
    12.0109  12.0434  12.0443  12.0726  12.0735  12.0826  12.1491  12.1498
    12.5866  12.5868  12.7629  12.7632  12.8114  13.1166

     highest occupied level (ev):    13.1168

!    total energy              =  -11463.78551732 Ry
     estimated scf accuracy    <          9.1E-11 Ry

     The total energy is the sum of the following terms:
     one-electron contribution =   -5488.15510326 Ry
     hartree contribution      =    3012.86080605 Ry
     xc contribution           =   -2341.03336716 Ry
     ewald contribution        =   -6645.48933446 Ry
     Dispersion Correction     =      -1.96851850 Ry

     convergence has been achieved in  22 iterations

     Forces acting on atoms (cartesian axes, Ry/au):

     atom    1 type  1   force =    -0.00000858   -0.00000005    0.00003697
     atom    2 type  1   force =     0.00000041    0.00000568   -0.00000476
     atom    3 type  1   force =    -0.00000466    0.00000300   -0.00000624
     atom    4 type  1   force =    -0.00000528   -0.00000144   -0.00000168
     atom    5 type  1   force =     0.00000493    0.00000079   -0.00000928
     atom    6 type  1   force =     0.00000051   -0.00000019    0.00000260
     atom    7 type  1   force =    -0.00000588   -0.00000273   -0.00000098
     atom    8 type  1   force =     0.00000343    0.00000016    0.00000709
     atom    9 type  1   force =    -0.00000075   -0.00000592   -0.00001005
     atom   10 type  1   force =    -0.00196642    0.00097501   -0.00207816
     atom   11 type  1   force =    -0.00001307   -0.00001679   -0.00004865
     atom   12 type  1   force =     0.00002441    0.00017473   -0.00063644
     atom   13 type  1   force =    -0.00027789   -0.00115806   -0.00136614
     atom   14 type  1   force =    -0.00004758   -0.00007861   -0.00009485
     atom   15 type  1   force =     0.00001818    0.00004159   -0.00003764
     atom   16 type  1   force =     0.00000379    0.00000967   -0.00004749
     atom   17 type  1   force =    -0.00002508    0.00000690   -0.00004990
     atom   18 type  1   force =     0.00008938    0.00003783   -0.00006640
     atom   19 type  2   force =     0.00266823    0.00001085    0.00457267
     atom   20 type  2   force =    -0.00016555    0.00000019    0.00007124
     atom   21 type  2   force =    -0.00023485   -0.00001264    0.00012579
     atom   22 type  2   force =    -0.00004208    0.00013650    0.00011684
     atom   23 type  2   force =    -0.00002107   -0.00007177    0.00008127
     atom   24 type  2   force =     0.00000561   -0.00000036   -0.00000424
     atom   25 type  2   force =    -0.00000856    0.00006443    0.00008887
     atom   26 type  2   force =     0.00000506   -0.00000072   -0.00000381
     atom   27 type  2   force =    -0.00005398   -0.00011715    0.00010803
     atom   28 type  2   force =     0.00004732   -0.00002200   -0.00003577
     atom   29 type  2   force =    -0.00000099    0.00000217    0.00000181
     atom   30 type  2   force =    -0.00008986   -0.00005651   -0.00014272
     atom   31 type  2   force =     0.00000851    0.00007869   -0.00008867
     atom   32 type  2   force =     0.00000427   -0.00000019    0.00001114
     atom   33 type  2   force =    -0.00000342    0.00000399    0.00000496
     atom   34 type  2   force =    -0.00000239   -0.00000074    0.00000068
     atom   35 type  2   force =     0.00000061   -0.00000074    0.00000415
     atom   36 type  2   force =     0.00000393   -0.00000436    0.00000808
     atom   37 type  2   force =     0.00000109   -0.00000052   -0.00000469
     atom   38 type  2   force =     0.00000263   -0.00000051   -0.00000299
     atom   39 type  2   force =    -0.00000118    0.00000001   -0.00000434
     atom   40 type  2   force =    -0.00000057    0.00000085   -0.00000493
     atom   41 type  2   force =    -0.00000073   -0.00000140   -0.00000114
     atom   42 type  2   force =     0.00000216   -0.00000094   -0.00000318
     atom   43 type  2   force =     0.00000148   -0.00000058   -0.00000365
     atom   44 type  2   force =    -0.00000005    0.00000174   -0.00000337
     atom   45 type  2   force =     0.00000102    0.00000178   -0.00000214
     atom   46 type  2   force =     0.00005608    0.00000068   -0.00050778
     atom   47 type  2   force =    -0.00007038   -0.00006406   -0.00003738
     atom   48 type  2   force =     0.00001355   -0.00001264    0.00002727
     atom   49 type  2   force =     0.00007924   -0.00001154   -0.00001539
     atom   50 type  2   force =    -0.00003041   -0.00002261    0.00000340
     atom   51 type  2   force =    -0.00000697   -0.00000027    0.00003137
     atom   52 type  2   force =     0.00003764    0.00011065   -0.00004677
     atom   53 type  2   force =    -0.00000767   -0.00000071    0.00003080
     atom   54 type  2   force =     0.00001242   -0.00000113    0.00003661

     Total force =     0.006440     Total SCF correction =     0.000060


     Computing stress (Cartesian axis) and pressure

          total   stress  (Ry/bohr**3)                   (kbar)     P=       -0.17
  -0.00000079   0.00000024  -0.00000082           -0.12        0.03       -0.12
   0.00000024  -0.00000079  -0.00000000            0.03       -0.12       -0.00
  -0.00000082  -0.00000000  -0.00000188           -0.12       -0.00       -0.28


     Writing all to output data dir ./WSe.save/ :
     XML data file, charge density, pseudopotentials, collected wavefunctions
 
     init_run     :     10.76s CPU     12.31s WALL (       1 calls)
     electrons    :    747.27s CPU    901.09s WALL (       1 calls)
     forces       :      7.69s CPU      8.38s WALL (       1 calls)
     force_london :      0.04s CPU      0.04s WALL (       1 calls)
     stress       :    116.79s CPU    120.69s WALL (       1 calls)
     stres_london :      0.04s CPU      0.04s WALL (       1 calls)

     Called by init_run:
     wfcinit      :      9.95s CPU     11.39s WALL (       1 calls)
     potinit      :      0.05s CPU      0.08s WALL (       1 calls)
     hinit0       :      0.35s CPU      0.38s WALL (       1 calls)

     Called by electrons:
     c_bands      :    705.79s CPU    853.15s WALL (      23 calls)
     sum_band     :     39.57s CPU     45.27s WALL (      23 calls)
     v_of_rho     :      1.27s CPU      1.47s WALL (      23 calls)
     mix_rho      :      0.50s CPU      0.57s WALL (      23 calls)
     energy_londo :      0.04s CPU      0.04s WALL (       1 calls)

     Called by c_bands:
     init_us_2    :      8.65s CPU      8.76s WALL (     147 calls)
     init_us_2:cp :      8.64s CPU      8.76s WALL (     147 calls)
     cegterg      :    675.90s CPU    812.03s WALL (      69 calls)

     Called by *egterg:
     cdiaghg      :     47.27s CPU    120.75s WALL (     442 calls)
     h_psi        :    391.76s CPU    427.25s WALL (     448 calls)
     g_psi        :      1.58s CPU      1.63s WALL (     376 calls)

     Called by h_psi:
     h_psi:calbec :    101.50s CPU    108.02s WALL (     448 calls)
     vloc_psi     :    197.17s CPU    225.03s WALL (     448 calls)
     add_vuspsi   :     89.24s CPU     89.83s WALL (     448 calls)

     General routines
     calbec       :    108.47s CPU    116.53s WALL (     463 calls)
     fft          :      1.04s CPU      1.23s WALL (     255 calls)
     ffts         :      0.06s CPU      0.08s WALL (      23 calls)
     fftw         :    208.82s CPU    238.41s WALL (  185510 calls)
 
     Parallel routines
     fft_scatt_xy :     24.16s CPU     26.94s WALL (  185788 calls)
     fft_scatt_yz :    116.03s CPU    134.99s WALL (  185788 calls)
 
     PWSCF        :  14m44.63s CPU  17m31.96s WALL

 
   This run was terminated on:  18: 2:36   5Nov2024            

=------------------------------------------------------------------------------=
   JOB DONE.
=------------------------------------------------------------------------------=
