
     Program PWSCF v.7.3 starts on  5Nov2024 at 17:24:45 

     This program is part of the open-source Quantum ESPRESSO suite
     for quantum simulation of materials; please cite
         "P. Giannozzi et al., J. Phys.:Condens. Matter 21 395502 (2009);
         "P. Giannozzi et al., J. Phys.:Condens. Matter 29 465901 (2017);
         "P. Giannozzi et al., J. Chem. Phys. 152 154105 (2020);
          URL http://www.quantum-espresso.org", 
     in publications or presentations arising from this work. More details at
     http://www.quantum-espresso.org/quote

     Parallel version (MPI & OpenMP), running on     256 processor cores
     Number of MPI processes:               256
     Threads/MPI process:                     1

     MPI processes distributed on     1 nodes
     468601 MiB available memory on the printing compute node when the environment starts
 
     Waiting for input...
     Reading input from standard input

     Current dimensions of program PWSCF are:
     Max number of different atomic species (ntypx) = 10
     Max number of k-points (npk) =  40000
     Max angular momentum in pseudopotentials (lmaxx) =  4
 
     K-points division:     npool     =       4
     R & G space division:  proc/nbgrp/npool/nimage =      64
     Subspace diagonalization in iterative solution of the eigenvalue problem:
     one sub-group per band group will be used
     scalapack distributed-memory algorithm (size of sub-group:  4*  4 procs)

 
     Parallelization info
     --------------------
     sticks:   dense  smooth     PW     G-vecs:    dense   smooth      PW
     Min         122     122     32                11252    11252    1492
     Max         123     123     33                11261    11261    1499
     Sum        7861    7861   2053               720389   720389   95627
 
     Using Pencil Decomposition
 


     bravais-lattice index     =            0
     lattice parameter (alat)  =      18.8835  a.u.
     unit-cell volume          =    7451.1810 (a.u.)^3
     number of atoms/cell      =           54
     number of atomic types    =            2
     number of electrons       =       828.00
     number of Kohn-Sham states=          414
     kinetic-energy cutoff     =      80.0000  Ry
     charge density cutoff     =     320.0000  Ry
     scf convergence threshold =      1.0E-10
     mixing beta               =       0.5000
     number of iterations used =            8  plain     mixing
     Exchange-correlation= PBE
                           (   1   4   3   4   0   0   0)

     celldm(1)=  18.883515  celldm(2)=   0.000000  celldm(3)=   0.000000
     celldm(4)=   0.000000  celldm(5)=   0.000000  celldm(6)=   0.000000

     crystal axes: (cart. coord. in units of alat)
               a(1) = (   1.000000   0.000000   0.000000 )  
               a(2) = (  -0.500000   0.866025   0.000000 )  
               a(3) = (   0.000000   0.000000   1.277750 )  

     reciprocal axes: (cart. coord. in units 2 pi/alat)
               b(1) = (  1.000000  0.577350  0.000000 )  
               b(2) = (  0.000000  1.154701  0.000000 )  
               b(3) = (  0.000000  0.000000  0.782626 )  


     PseudoPot. # 1 for W  read from file:
     /users/rkarkee/pbe_pseudo/W.upf
     MD5 check sum: cb94e439a9e4ea809831d6e90c63864e
     Pseudo is Norm-conserving + core correction, Zval = 14.0
     Generated using ONCVPSP code by D. R. Hamann
     Using radial grid of 1396 points,  8 beta functions with: 
                l(1) =   0
                l(2) =   0
                l(3) =   1
                l(4) =   1
                l(5) =   2
                l(6) =   2
                l(7) =   3
                l(8) =   3

     PseudoPot. # 2 for Se read from file:
     /users/rkarkee/pbe_pseudo/Se.upf
     MD5 check sum: 3cc46b3642295b3f4fdae63b742ce36d
     Pseudo is Norm-conserving + core correction, Zval = 16.0
     Generated using ONCVPSP code by D. R. Hamann
     Using radial grid of 1214 points,  6 beta functions with: 
                l(1) =   0
                l(2) =   0
                l(3) =   1
                l(4) =   1
                l(5) =   2
                l(6) =   2

     atomic species   valence    mass     pseudopotential
     W                14.00   183.84000     W ( 1.00)
     Se               16.00    78.96000     Se( 1.00)

     No symmetry found



   Cartesian axes

     site n.     atom                  positions (alat units)
         1        W      tau(   1) = (  -0.0000000   0.1924501   0.9583127  )
         2        W      tau(   2) = (   0.3333333   0.1924501   0.9583127  )
         3        W      tau(   3) = (   0.6666667   0.1924501   0.9583127  )
         4        W      tau(   4) = (  -0.1666667   0.4811252   0.9583127  )
         5        W      tau(   5) = (   0.1666667   0.4811252   0.9583127  )
         6        W      tau(   6) = (   0.5000000   0.4811252   0.9583127  )
         7        W      tau(   7) = (  -0.3333333   0.7698004   0.9583127  )
         8        W      tau(   8) = (   0.0000000   0.7698004   0.9583127  )
         9        W      tau(   9) = (   0.3333333   0.7698004   0.9583127  )
        10        W      tau(  10) = (   0.1666667   0.0962250   0.3194376  )
        11        W      tau(  11) = (   0.5000000   0.0962250   0.3194376  )
        12        W      tau(  12) = (   0.8333333   0.0962250   0.3194376  )
        13        W      tau(  13) = (  -0.0000000   0.3849002   0.3194376  )
        14        W      tau(  14) = (   0.3333333   0.3849002   0.3194376  )
        15        W      tau(  15) = (   0.6666667   0.3849002   0.3194376  )
        16        W      tau(  16) = (  -0.1666667   0.6735753   0.3194376  )
        17        W      tau(  17) = (   0.1666667   0.6735753   0.3194376  )
        18        W      tau(  18) = (   0.5000000   0.6735753   0.3194376  )
        19        Se     tau(  19) = (   0.0006528   0.1924501   0.1536915  )
        20        Se     tau(  20) = (   0.3333333   0.1924501   0.1528574  )
        21        Se     tau(  21) = (   0.6666667   0.1924501   0.1528574  )
        22        Se     tau(  22) = (  -0.1666667   0.4811252   0.1528574  )
        23        Se     tau(  23) = (   0.1666667   0.4811252   0.1528574  )
        24        Se     tau(  24) = (   0.5000000   0.4811252   0.1528574  )
        25        Se     tau(  25) = (  -0.3333333   0.7698004   0.1528574  )
        26        Se     tau(  26) = (   0.0000000   0.7698004   0.1528574  )
        27        Se     tau(  27) = (   0.3333333   0.7698004   0.1528574  )
        28        Se     tau(  28) = (   0.1666667   0.0962250   1.1248928  )
        29        Se     tau(  29) = (   0.5000000   0.0962250   1.1248928  )
        30        Se     tau(  30) = (   0.8333333   0.0962250   1.1248928  )
        31        Se     tau(  31) = (  -0.0000000   0.3849002   1.1248928  )
        32        Se     tau(  32) = (   0.3333333   0.3849002   1.1248928  )
        33        Se     tau(  33) = (   0.6666667   0.3849002   1.1248928  )
        34        Se     tau(  34) = (  -0.1666667   0.6735753   1.1248928  )
        35        Se     tau(  35) = (   0.1666667   0.6735753   1.1248928  )
        36        Se     tau(  36) = (   0.5000000   0.6735753   1.1248928  )
        37        Se     tau(  37) = (   0.1666667   0.0962250   0.7917325  )
        38        Se     tau(  38) = (   0.5000000   0.0962250   0.7917325  )
        39        Se     tau(  39) = (   0.8333333   0.0962250   0.7917325  )
        40        Se     tau(  40) = (  -0.0000000   0.3849002   0.7917325  )
        41        Se     tau(  41) = (   0.3333333   0.3849002   0.7917325  )
        42        Se     tau(  42) = (   0.6666667   0.3849002   0.7917325  )
        43        Se     tau(  43) = (  -0.1666667   0.6735753   0.7917325  )
        44        Se     tau(  44) = (   0.1666667   0.6735753   0.7917325  )
        45        Se     tau(  45) = (   0.5000000   0.6735753   0.7917325  )
        46        Se     tau(  46) = (  -0.0000000   0.1924501   0.4860177  )
        47        Se     tau(  47) = (   0.3333333   0.1924501   0.4860177  )
        48        Se     tau(  48) = (   0.6666667   0.1924501   0.4860177  )
        49        Se     tau(  49) = (  -0.1666667   0.4811252   0.4860177  )
        50        Se     tau(  50) = (   0.1666667   0.4811252   0.4860177  )
        51        Se     tau(  51) = (   0.5000000   0.4811252   0.4860177  )
        52        Se     tau(  52) = (  -0.3333333   0.7698004   0.4860177  )
        53        Se     tau(  53) = (   0.0000000   0.7698004   0.4860177  )
        54        Se     tau(  54) = (   0.3333333   0.7698004   0.4860177  )

     -------------------------------------------------
     Parameters for Dispersion (Grimme-D2) Correction:
     -------------------------------------------------
       atom      VdW radius       C_6     

        W          3.349       2818.308
        Se         3.347        438.498

     number of k points=    12
                       cart. coord. in units 2pi/alat
        k(    1) = (   0.2500000   0.4330127   0.1956564), wk =   0.1666667
        k(    2) = (   0.2500000  -0.1443376   0.1956564), wk =   0.1666667
        k(    3) = (  -0.2500000  -0.4330127   0.1956564), wk =   0.1666667
        k(    4) = (  -0.2500000   0.4330127  -0.1956564), wk =   0.1666667
        k(    5) = (   0.2500000  -0.4330127  -0.1956564), wk =   0.1666667
        k(    6) = (   0.5000000  -0.0000000   0.1956564), wk =   0.1666667
        k(    7) = (  -0.5000000   0.0000000   0.1956564), wk =   0.1666667
        k(    8) = (  -0.2500000   0.1443376   0.1956564), wk =   0.1666667
        k(    9) = (  -0.2500000  -0.1443376  -0.1956564), wk =   0.1666667
        k(   10) = (   0.2500000   0.1443376  -0.1956564), wk =   0.1666667
        k(   11) = (   0.0000000  -0.2886751   0.1956564), wk =   0.1666667
        k(   12) = (   0.0000000   0.2886751   0.1956564), wk =   0.1666667

     Dense  grid:   720389 G-vectors     FFT dimensions: ( 108, 108, 144)

     Estimated max dynamical RAM per process >     121.33 MB

     Estimated total dynamical RAM >      29.82 GB

     Initial potential from superposition of free atoms

     starting charge     827.9882, renormalised to     828.0000
     Starting wfcs are  504 randomized atomic wfcs

     total cpu time spent up to now is       12.5 secs

     Self-consistent Calculation

     iteration #  1     ecut=    80.00 Ry     beta= 0.50
     Davidson diagonalization with overlap
     ethr =  1.00E-02,  avg # of iterations =  2.0

     Threshold (ethr) on eigenvalues was too large:
     Diagonalizing with lowered threshold

     Davidson diagonalization with overlap
     ethr =  8.61E-05,  avg # of iterations =  5.5

     total cpu time spent up to now is       92.5 secs

     total energy              =  -11463.60428146 Ry
     estimated scf accuracy    <       1.12745405 Ry

     iteration #  2     ecut=    80.00 Ry     beta= 0.50
     Davidson diagonalization with overlap
     ethr =  1.36E-04,  avg # of iterations =  2.3

     total cpu time spent up to now is      123.6 secs

     total energy              =  -11463.72253267 Ry
     estimated scf accuracy    <       0.23474138 Ry

     iteration #  3     ecut=    80.00 Ry     beta= 0.50
     Davidson diagonalization with overlap
     ethr =  2.84E-05,  avg # of iterations =  5.3

     total cpu time spent up to now is      166.4 secs

     total energy              =  -11463.74032273 Ry
     estimated scf accuracy    <       0.22472092 Ry

     iteration #  4     ecut=    80.00 Ry     beta= 0.50
     Davidson diagonalization with overlap
     ethr =  2.71E-05,  avg # of iterations =  5.4

     total cpu time spent up to now is      201.3 secs

     total energy              =  -11463.78393473 Ry
     estimated scf accuracy    <       0.00846175 Ry

     iteration #  5     ecut=    80.00 Ry     beta= 0.50
     Davidson diagonalization with overlap
     ethr =  1.02E-06,  avg # of iterations =  6.0

     total cpu time spent up to now is      244.9 secs

     total energy              =  -11463.78397491 Ry
     estimated scf accuracy    <       0.01302894 Ry

     iteration #  6     ecut=    80.00 Ry     beta= 0.50
     Davidson diagonalization with overlap
     ethr =  1.02E-06,  avg # of iterations =  5.5

     total cpu time spent up to now is      280.2 secs

     total energy              =  -11463.78447605 Ry
     estimated scf accuracy    <       0.00432590 Ry

     iteration #  7     ecut=    80.00 Ry     beta= 0.50
     Davidson diagonalization with overlap
     ethr =  5.22E-07,  avg # of iterations =  6.0

     total cpu time spent up to now is      326.1 secs

     total energy              =  -11463.78503877 Ry
     estimated scf accuracy    <       0.00876644 Ry

     iteration #  8     ecut=    80.00 Ry     beta= 0.50
     Davidson diagonalization with overlap
     ethr =  5.22E-07,  avg # of iterations =  3.0

     total cpu time spent up to now is      357.9 secs

     total energy              =  -11463.78510733 Ry
     estimated scf accuracy    <       0.00193475 Ry

     iteration #  9     ecut=    80.00 Ry     beta= 0.50
     Davidson diagonalization with overlap
     ethr =  2.34E-07,  avg # of iterations =  6.0

     total cpu time spent up to now is      397.9 secs

     total energy              =  -11463.78549491 Ry
     estimated scf accuracy    <       0.00004372 Ry

     iteration # 10     ecut=    80.00 Ry     beta= 0.50
     Davidson diagonalization with overlap
     ethr =  5.28E-09,  avg # of iterations =  6.0

     total cpu time spent up to now is      442.9 secs

     total energy              =  -11463.78551503 Ry
     estimated scf accuracy    <       0.00001583 Ry

     iteration # 11     ecut=    80.00 Ry     beta= 0.50
     Davidson diagonalization with overlap
     ethr =  1.91E-09,  avg # of iterations =  6.2

     total cpu time spent up to now is      478.1 secs

     total energy              =  -11463.78551500 Ry
     estimated scf accuracy    <       0.00000586 Ry

     iteration # 12     ecut=    80.00 Ry     beta= 0.50
     Davidson diagonalization with overlap
     ethr =  7.08E-10,  avg # of iterations =  6.0

     total cpu time spent up to now is      518.1 secs

     total energy              =  -11463.78551633 Ry
     estimated scf accuracy    <       0.00000110 Ry

     iteration # 13     ecut=    80.00 Ry     beta= 0.50
     Davidson diagonalization with overlap
     ethr =  1.33E-10,  avg # of iterations =  7.0

     total cpu time spent up to now is      556.6 secs

     total energy              =  -11463.78551614 Ry
     estimated scf accuracy    <       0.00000183 Ry

     iteration # 14     ecut=    80.00 Ry     beta= 0.50
     Davidson diagonalization with overlap
     ethr =  1.33E-10,  avg # of iterations =  6.0

     total cpu time spent up to now is      591.7 secs

     total energy              =  -11463.78551620 Ry
     estimated scf accuracy    <       0.00000025 Ry

     iteration # 15     ecut=    80.00 Ry     beta= 0.50
     Davidson diagonalization with overlap
     ethr =  2.98E-11,  avg # of iterations =  6.0

     total cpu time spent up to now is      637.2 secs

     total energy              =  -11463.78551631 Ry
     estimated scf accuracy    <       0.00000019 Ry

     iteration # 16     ecut=    80.00 Ry     beta= 0.50
     Davidson diagonalization with overlap
     ethr =  2.29E-11,  avg # of iterations =  2.0

     total cpu time spent up to now is      664.8 secs

     total energy              =  -11463.78551629 Ry
     estimated scf accuracy    <       0.00000012 Ry

     iteration # 17     ecut=    80.00 Ry     beta= 0.50
     Davidson diagonalization with overlap
     ethr =  1.46E-11,  avg # of iterations =  3.7

     total cpu time spent up to now is      696.5 secs

     total energy              =  -11463.78551629 Ry
     estimated scf accuracy    <       0.00000004 Ry

     iteration # 18     ecut=    80.00 Ry     beta= 0.50
     Davidson diagonalization with overlap
     ethr =  4.88E-12,  avg # of iterations =  6.1

     total cpu time spent up to now is      735.2 secs

     total energy              =  -11463.78551630 Ry
     estimated scf accuracy    <          7.9E-09 Ry

     iteration # 19     ecut=    80.00 Ry     beta= 0.50
     Davidson diagonalization with overlap
     ethr =  9.58E-13,  avg # of iterations =  6.5

     total cpu time spent up to now is      773.0 secs

     total energy              =  -11463.78551630 Ry
     estimated scf accuracy    <          1.8E-09 Ry

     iteration # 20     ecut=    80.00 Ry     beta= 0.50
     Davidson diagonalization with overlap
     ethr =  2.21E-13,  avg # of iterations =  8.0

     total cpu time spent up to now is      820.2 secs

     total energy              =  -11463.78551630 Ry
     estimated scf accuracy    <          5.6E-09 Ry

     iteration # 21     ecut=    80.00 Ry     beta= 0.50
     Davidson diagonalization with overlap
     ethr =  2.21E-13,  avg # of iterations =  6.5

     total cpu time spent up to now is      855.9 secs

     total energy              =  -11463.78551630 Ry
     estimated scf accuracy    <          2.1E-09 Ry

     iteration # 22     ecut=    80.00 Ry     beta= 0.50
     Davidson diagonalization with overlap
     ethr =  2.21E-13,  avg # of iterations =  3.0

     total cpu time spent up to now is      885.9 secs

     total energy              =  -11463.78551630 Ry
     estimated scf accuracy    <          7.2E-10 Ry

     iteration # 23     ecut=    80.00 Ry     beta= 0.50
     Davidson diagonalization with overlap
     ethr =  1.00E-13,  avg # of iterations =  7.3

     total cpu time spent up to now is      929.9 secs

     total energy              =  -11463.78551630 Ry
     estimated scf accuracy    <          8.2E-10 Ry

     iteration # 24     ecut=    80.00 Ry     beta= 0.50
     Davidson diagonalization with overlap
     ethr =  1.00E-13,  avg # of iterations =  2.0

     total cpu time spent up to now is      956.7 secs

     total energy              =  -11463.78551630 Ry
     estimated scf accuracy    <          5.5E-10 Ry

     iteration # 25     ecut=    80.00 Ry     beta= 0.50
     Davidson diagonalization with overlap
     ethr =  1.00E-13,  avg # of iterations =  2.0

     total cpu time spent up to now is      983.7 secs

     total energy              =  -11463.78551630 Ry
     estimated scf accuracy    <          2.9E-10 Ry

     iteration # 26     ecut=    80.00 Ry     beta= 0.50
     Davidson diagonalization with overlap
     ethr =  1.00E-13,  avg # of iterations =  7.0

     total cpu time spent up to now is     1019.2 secs

     total energy              =  -11463.78551630 Ry
     estimated scf accuracy    <          1.5E-10 Ry

     iteration # 27     ecut=    80.00 Ry     beta= 0.50
     Davidson diagonalization with overlap
     ethr =  1.00E-13,  avg # of iterations =  1.0

     total cpu time spent up to now is     1043.5 secs

     total energy              =  -11463.78551630 Ry
     estimated scf accuracy    <          1.3E-10 Ry

     iteration # 28     ecut=    80.00 Ry     beta= 0.50
     Davidson diagonalization with overlap
     ethr =  1.00E-13,  avg # of iterations =  1.0

     total cpu time spent up to now is     1067.4 secs

     End of self-consistent calculation

          k = 0.2500 0.4330 0.1957 ( 90083 PWs)   bands (ev):

   -61.1672 -61.1669 -61.1656 -61.1651 -61.1651 -61.1650 -61.1619 -61.1616
   -61.1615 -61.1615 -61.1608 -61.1604 -61.1602 -61.1601 -61.1601 -61.1597
   -61.1597 -61.1590 -34.7049 -34.7048 -34.7023 -34.7022 -34.7021 -34.7020
   -34.7019 -34.7019 -34.7018 -34.7018 -34.7017 -34.7017 -34.7016 -34.7016
   -34.7015 -34.7015 -34.7014 -34.7013 -34.7013 -34.7013 -34.7013 -34.7012
   -34.7012 -34.7012 -34.7012 -34.7012 -34.7011 -34.7011 -34.7010 -34.7009
   -34.7008 -34.7008 -34.7007 -34.7007 -34.7007 -34.7007 -34.7006 -34.7006
   -34.7005 -34.7004 -34.7003 -34.7002 -34.7002 -34.7001 -34.7001 -34.7000
   -34.6997 -34.6996 -34.6995 -34.6993 -34.6992 -34.6991 -34.6990 -34.6989
   -34.6988 -34.6987 -34.6987 -34.6986 -34.6986 -34.6985 -34.6985 -34.6984
   -34.6984 -34.6983 -34.6982 -34.6981 -34.6980 -34.6979 -34.6979 -34.6979
   -34.6976 -34.6976 -34.6685 -34.6681 -34.6666 -34.6665 -34.6663 -34.6663
   -34.6662 -34.6661 -34.6660 -34.6659 -34.6659 -34.6658 -34.6658 -34.6658
   -34.6657 -34.6656 -34.6656 -34.6655 -34.6655 -34.6655 -34.6655 -34.6655
   -34.6654 -34.6654 -34.6654 -34.6654 -34.6653 -34.6653 -34.6652 -34.6652
   -34.6652 -34.6651 -34.6651 -34.6650 -34.6650 -34.6649 -34.6649 -34.6649
   -34.6648 -34.6648 -34.6648 -34.6647 -34.6647 -34.6646 -34.6646 -34.6646
   -34.6646 -34.6645 -34.6645 -34.6645 -34.6644 -34.6644 -34.6643 -34.6643
   -34.6643 -34.6642 -34.6642 -34.6641 -34.6641 -34.6640 -34.6639 -34.6639
   -34.6639 -34.6638 -34.6638 -34.6637 -34.6637 -34.6636 -34.6636 -34.6634
   -34.6634 -34.6633 -34.6514 -34.6505 -34.6502 -34.6500 -34.6498 -34.6496
   -34.6495 -34.6495 -34.6494 -34.6493 -34.6491 -34.6490 -34.6489 -34.6488
   -34.6487 -34.6486 -34.6485 -34.6485 -34.6483 -34.6479 -34.6477 -34.6476
   -34.6473 -34.6472 -34.6471 -34.6469 -34.6468 -34.6467 -34.6465 -34.6465
   -34.6464 -34.6463 -34.6462 -34.6461 -34.6460 -34.6459 -25.4828 -25.4825
   -25.4822 -25.4822 -25.4736 -25.4731 -25.4527 -25.4523 -25.4402 -25.4400
   -25.4396 -25.4396 -25.3731 -25.3729 -25.3728 -25.3725 -25.3686 -25.3684
   -25.3680 -25.3680 -25.3662 -25.3658 -25.3642 -25.3637 -25.3637 -25.3636
   -25.3461 -25.3459 -25.3458 -25.3455 -25.3455 -25.3454 -25.3454 -25.3454
   -25.3425 -25.3423 -25.3420 -25.3420 -25.3393 -25.3390 -25.3387 -25.3387
   -25.3386 -25.3384 -25.3364 -25.3362 -25.3259 -25.3255 -25.3092 -25.3090
   -25.3087 -25.3087 -25.2970 -25.2966  -1.6350  -1.4400  -1.2752  -1.2738
    -1.0886  -1.0870  -0.5523  -0.4150  -0.4137  -0.3589  -0.3582  -0.2729
    -0.2715  -0.2440  -0.0859  -0.0851  -0.0302   0.0031   0.0046   0.0714
     0.0929   0.0945   0.0974   0.0980   0.1490   0.2161   0.2681   0.2690
     0.2988   0.3014   0.3019   0.3822   0.3925   0.3931   0.4105   0.4478
     6.6598   6.6607   6.6809   6.8868   6.8874   6.8885   7.0887   7.1092
     7.1100   7.3783   7.4446   7.4806   7.4816   7.4957   7.6601   7.6609
     7.7259   7.7658   7.7936   7.7944   7.8604   7.8608   7.8707   7.8718
     7.9406   8.0744   8.2440   8.2451   8.3498   8.3506   8.5290   8.5301
     8.5904   8.6232   8.6244   8.6908   8.7931   8.8526   8.8531   8.8897
     8.8898   8.9592   8.9595   9.0050   9.0547   9.0562   9.3401   9.3985
     9.3994   9.4502   9.4508   9.5820   9.6038   9.6649   9.7050   9.7224
     9.7310   9.7818   9.7828   9.8257   9.8414   9.8423   9.8749   9.8758
     9.9212   9.9466   9.9467  10.0764  10.3313  10.3802  10.3815  10.4036
    10.4046  10.5113  10.5128  10.5356  10.5365  10.6321  10.6781  10.7257
    10.7268  10.7554  10.7781  10.9183  10.9191  10.9201  10.9863  10.9875
    10.9879  10.9942  11.0275  11.0280  11.0755  11.1012  11.1019  11.1653
    11.2511  11.2518  11.2576  11.2583  11.3760  11.3772  11.5266  11.5286
    11.6286  11.8899  11.8910  11.9865  12.1774  12.1780  12.1829  12.1838
    12.2135  12.2141  12.2516  12.2526  12.2665  12.2674  12.3438  12.3582
    12.3591  12.4098  12.4448  12.6180  12.6290  12.7715

          k = 0.2500-0.1443 0.1957 ( 89997 PWs)   bands (ev):

   -61.1682 -61.1680 -61.1646 -61.1643 -61.1634 -61.1630 -61.1630 -61.1630
   -61.1615 -61.1614 -61.1612 -61.1612 -61.1607 -61.1607 -61.1595 -61.1594
   -61.1594 -61.1588 -34.7049 -34.7049 -34.7025 -34.7023 -34.7022 -34.7021
   -34.7020 -34.7020 -34.7019 -34.7018 -34.7018 -34.7018 -34.7016 -34.7016
   -34.7016 -34.7016 -34.7016 -34.7015 -34.7015 -34.7015 -34.7014 -34.7014
   -34.7014 -34.7013 -34.7013 -34.7011 -34.7011 -34.7010 -34.7010 -34.7009
   -34.7009 -34.7009 -34.7008 -34.7008 -34.7005 -34.7005 -34.7005 -34.7004
   -34.7003 -34.7000 -34.6999 -34.6997 -34.6997 -34.6996 -34.6996 -34.6996
   -34.6994 -34.6993 -34.6992 -34.6992 -34.6992 -34.6991 -34.6990 -34.6989
   -34.6989 -34.6988 -34.6988 -34.6987 -34.6987 -34.6985 -34.6985 -34.6985
   -34.6984 -34.6984 -34.6984 -34.6983 -34.6983 -34.6981 -34.6980 -34.6980
   -34.6980 -34.6976 -34.6685 -34.6681 -34.6667 -34.6666 -34.6662 -34.6661
   -34.6661 -34.6660 -34.6660 -34.6660 -34.6659 -34.6659 -34.6658 -34.6657
   -34.6657 -34.6656 -34.6656 -34.6655 -34.6655 -34.6654 -34.6654 -34.6654
   -34.6654 -34.6653 -34.6653 -34.6653 -34.6653 -34.6652 -34.6652 -34.6652
   -34.6652 -34.6651 -34.6651 -34.6651 -34.6650 -34.6650 -34.6650 -34.6649
   -34.6648 -34.6648 -34.6648 -34.6648 -34.6647 -34.6647 -34.6647 -34.6647
   -34.6646 -34.6646 -34.6646 -34.6645 -34.6645 -34.6644 -34.6643 -34.6643
   -34.6643 -34.6642 -34.6642 -34.6641 -34.6641 -34.6641 -34.6640 -34.6639
   -34.6638 -34.6638 -34.6636 -34.6636 -34.6636 -34.6636 -34.6635 -34.6634
   -34.6634 -34.6632 -34.6514 -34.6505 -34.6502 -34.6500 -34.6497 -34.6496
   -34.6494 -34.6494 -34.6493 -34.6492 -34.6492 -34.6492 -34.6489 -34.6488
   -34.6488 -34.6487 -34.6485 -34.6485 -34.6484 -34.6479 -34.6477 -34.6475
   -34.6472 -34.6471 -34.6470 -34.6468 -34.6467 -34.6467 -34.6467 -34.6466
   -34.6464 -34.6463 -34.6463 -34.6462 -34.6459 -34.6459 -25.4767 -25.4762
   -25.4589 -25.4586 -25.4583 -25.4583 -25.4556 -25.4552 -25.4549 -25.4549
   -25.4172 -25.4168 -25.4166 -25.4166 -25.3931 -25.3930 -25.3926 -25.3926
   -25.3896 -25.3891 -25.3783 -25.3780 -25.3601 -25.3598 -25.3534 -25.3533
   -25.3531 -25.3531 -25.3442 -25.3442 -25.3439 -25.3439 -25.3417 -25.3415
   -25.3355 -25.3354 -25.3350 -25.3350 -25.3350 -25.3350 -25.3348 -25.3348
   -25.3316 -25.3312 -25.3233 -25.3232 -25.3228 -25.3228 -25.3110 -25.3106
   -25.3009 -25.3005 -25.2902 -25.2899  -1.8283  -1.6305  -1.1092  -0.9281
    -0.8049  -0.8035  -0.6566  -0.6373  -0.6357  -0.3309  -0.3258  -0.3245
    -0.2709  -0.1934  -0.1919  -0.1708  -0.1091  -0.1086  -0.0568  -0.0156
     0.1114   0.1120   0.1384   0.1389   0.2121   0.2271   0.2284   0.2809
     0.2823   0.2922   0.2928   0.3364   0.4295   0.4302   0.4840   0.4848
     6.4383   6.7445   6.9793   7.0846   7.0850   7.2628   7.2685   7.3145
     7.3150   7.3187   7.3194   7.4290   7.4298   7.4797   7.4806   7.6320
     7.6327   7.7679   7.7690   7.8984   7.9364   7.9392   7.9395   7.9898
     8.0863   8.0866   8.1294   8.1297   8.1685   8.1699   8.4271   8.4275
     8.5138   8.5450   8.5459   8.5465   8.6705   8.7130   8.7134   8.8974
     8.8989   9.0066   9.0076   9.0222   9.0230   9.0496   9.1163   9.1171
     9.1187   9.1191   9.1843   9.3062   9.3072   9.5521   9.6734   9.6746
     9.8033   9.8052   9.8169   9.8182   9.9158   9.9369   9.9635   9.9642
     9.9667   9.9672  10.0226  10.1844  10.1866  10.1874  10.2121  10.5600
    10.5920  10.6146  10.6349  10.6735  10.6739  10.6975  10.8990  10.9001
    10.9254  10.9260  10.9537  10.9544  10.9859  11.0624  11.0667  11.0672
    11.0732  11.1044  11.1057  11.1519  11.1526  11.1989  11.2502  11.2505
    11.2647  11.2654  11.2733  11.4191  11.4743  11.5331  11.5334  11.6077
    11.6106  11.7150  11.7231  11.8926  11.9054  11.9213  11.9966  11.9970
    12.0103  12.0433  12.0438  12.0716  12.0722  12.0827  12.1487  12.1490
    12.5863  12.5864  12.7623  12.7624  12.8121  13.1173

          k =-0.2500-0.4330 0.1957 ( 90083 PWs)   bands (ev):

   -61.1672 -61.1669 -61.1656 -61.1651 -61.1651 -61.1650 -61.1619 -61.1616
   -61.1615 -61.1615 -61.1608 -61.1604 -61.1602 -61.1601 -61.1601 -61.1597
   -61.1597 -61.1590 -34.7049 -34.7048 -34.7023 -34.7022 -34.7021 -34.7020
   -34.7019 -34.7019 -34.7018 -34.7018 -34.7017 -34.7017 -34.7016 -34.7016
   -34.7015 -34.7015 -34.7014 -34.7013 -34.7013 -34.7013 -34.7013 -34.7012
   -34.7012 -34.7012 -34.7012 -34.7012 -34.7011 -34.7011 -34.7010 -34.7009
   -34.7008 -34.7008 -34.7007 -34.7007 -34.7007 -34.7007 -34.7006 -34.7006
   -34.7005 -34.7004 -34.7003 -34.7002 -34.7002 -34.7001 -34.7001 -34.7000
   -34.6997 -34.6996 -34.6995 -34.6993 -34.6992 -34.6991 -34.6990 -34.6989
   -34.6988 -34.6987 -34.6987 -34.6986 -34.6986 -34.6985 -34.6985 -34.6984
   -34.6984 -34.6983 -34.6982 -34.6981 -34.6980 -34.6979 -34.6979 -34.6979
   -34.6976 -34.6976 -34.6685 -34.6681 -34.6666 -34.6665 -34.6663 -34.6663
   -34.6662 -34.6661 -34.6660 -34.6659 -34.6659 -34.6659 -34.6658 -34.6658
   -34.6657 -34.6656 -34.6656 -34.6655 -34.6655 -34.6655 -34.6655 -34.6655
   -34.6654 -34.6654 -34.6654 -34.6654 -34.6653 -34.6653 -34.6652 -34.6652
   -34.6652 -34.6651 -34.6651 -34.6650 -34.6650 -34.6650 -34.6649 -34.6648
   -34.6648 -34.6648 -34.6648 -34.6647 -34.6647 -34.6646 -34.6646 -34.6646
   -34.6646 -34.6645 -34.6645 -34.6645 -34.6644 -34.6644 -34.6643 -34.6643
   -34.6643 -34.6642 -34.6642 -34.6641 -34.6641 -34.6640 -34.6640 -34.6639
   -34.6639 -34.6638 -34.6637 -34.6637 -34.6637 -34.6636 -34.6636 -34.6634
   -34.6634 -34.6633 -34.6514 -34.6505 -34.6502 -34.6500 -34.6498 -34.6496
   -34.6496 -34.6495 -34.6494 -34.6493 -34.6491 -34.6490 -34.6489 -34.6488
   -34.6487 -34.6486 -34.6485 -34.6485 -34.6483 -34.6479 -34.6477 -34.6476
   -34.6473 -34.6472 -34.6471 -34.6469 -34.6468 -34.6467 -34.6465 -34.6465
   -34.6464 -34.6463 -34.6462 -34.6461 -34.6460 -34.6459 -25.4828 -25.4825
   -25.4822 -25.4822 -25.4736 -25.4731 -25.4527 -25.4523 -25.4402 -25.4400
   -25.4396 -25.4396 -25.3731 -25.3729 -25.3728 -25.3725 -25.3686 -25.3684
   -25.3680 -25.3680 -25.3662 -25.3658 -25.3642 -25.3637 -25.3637 -25.3636
   -25.3461 -25.3459 -25.3458 -25.3455 -25.3455 -25.3454 -25.3454 -25.3454
   -25.3425 -25.3423 -25.3420 -25.3420 -25.3393 -25.3390 -25.3387 -25.3387
   -25.3386 -25.3384 -25.3364 -25.3362 -25.3259 -25.3255 -25.3092 -25.3090
   -25.3087 -25.3087 -25.2970 -25.2966  -1.6350  -1.4400  -1.2752  -1.2738
    -1.0886  -1.0870  -0.5523  -0.4150  -0.4137  -0.3589  -0.3582  -0.2729
    -0.2715  -0.2440  -0.0859  -0.0851  -0.0302   0.0031   0.0046   0.0714
     0.0929   0.0945   0.0975   0.0980   0.1490   0.2161   0.2681   0.2690
     0.2988   0.3014   0.3019   0.3822   0.3925   0.3931   0.4105   0.4478
     6.6598   6.6607   6.6809   6.8868   6.8874   6.8885   7.0887   7.1092
     7.1100   7.3782   7.4446   7.4807   7.4816   7.4957   7.6601   7.6608
     7.7259   7.7658   7.7936   7.7944   7.8602   7.8609   7.8709   7.8718
     7.9407   8.0744   8.2440   8.2452   8.3498   8.3505   8.5290   8.5302
     8.5903   8.6232   8.6245   8.6907   8.7933   8.8527   8.8529   8.8897
     8.8898   8.9592   8.9594   9.0052   9.0547   9.0560   9.3399   9.3987
     9.3992   9.4503   9.4509   9.5817   9.6038   9.6648   9.7050   9.7226
     9.7312   9.7820   9.7828   9.8258   9.8413   9.8423   9.8749   9.8757
     9.9211   9.9466   9.9469  10.0765  10.3312  10.3801  10.3815  10.4035
    10.4046  10.5114  10.5128  10.5357  10.5365  10.6319  10.6782  10.7258
    10.7268  10.7554  10.7782  10.9184  10.9191  10.9201  10.9862  10.9874
    10.9879  10.9942  11.0275  11.0280  11.0756  11.1011  11.1020  11.1651
    11.2511  11.2518  11.2575  11.2581  11.3761  11.3774  11.5265  11.5285
    11.6285  11.8898  11.8911  11.9868  12.1775  12.1780  12.1828  12.1839
    12.2135  12.2141  12.2516  12.2526  12.2665  12.2675  12.3437  12.3583
    12.3591  12.4098  12.4448  12.6180  12.6288  12.7716

          k =-0.2500 0.4330-0.1957 ( 90083 PWs)   bands (ev):

   -61.1672 -61.1669 -61.1656 -61.1651 -61.1651 -61.1649 -61.1620 -61.1615
   -61.1615 -61.1614 -61.1608 -61.1605 -61.1602 -61.1601 -61.1601 -61.1597
   -61.1597 -61.1589 -34.7049 -34.7048 -34.7023 -34.7022 -34.7020 -34.7020
   -34.7019 -34.7019 -34.7019 -34.7018 -34.7017 -34.7017 -34.7016 -34.7016
   -34.7015 -34.7015 -34.7014 -34.7013 -34.7013 -34.7013 -34.7013 -34.7012
   -34.7012 -34.7012 -34.7012 -34.7012 -34.7011 -34.7011 -34.7009 -34.7009
   -34.7008 -34.7008 -34.7007 -34.7007 -34.7007 -34.7007 -34.7006 -34.7006
   -34.7005 -34.7004 -34.7004 -34.7002 -34.7002 -34.7001 -34.7001 -34.7000
   -34.6997 -34.6996 -34.6995 -34.6993 -34.6992 -34.6991 -34.6990 -34.6989
   -34.6988 -34.6987 -34.6987 -34.6986 -34.6985 -34.6985 -34.6985 -34.6984
   -34.6984 -34.6983 -34.6982 -34.6981 -34.6980 -34.6979 -34.6979 -34.6979
   -34.6976 -34.6976 -34.6685 -34.6680 -34.6665 -34.6665 -34.6663 -34.6663
   -34.6662 -34.6661 -34.6660 -34.6659 -34.6659 -34.6658 -34.6658 -34.6658
   -34.6657 -34.6656 -34.6656 -34.6656 -34.6655 -34.6655 -34.6655 -34.6655
   -34.6654 -34.6654 -34.6654 -34.6653 -34.6653 -34.6653 -34.6652 -34.6652
   -34.6652 -34.6651 -34.6651 -34.6650 -34.6650 -34.6650 -34.6649 -34.6649
   -34.6648 -34.6648 -34.6648 -34.6647 -34.6647 -34.6647 -34.6646 -34.6646
   -34.6645 -34.6645 -34.6645 -34.6645 -34.6644 -34.6644 -34.6644 -34.6643
   -34.6642 -34.6642 -34.6642 -34.6641 -34.6641 -34.6640 -34.6639 -34.6639
   -34.6639 -34.6638 -34.6638 -34.6637 -34.6637 -34.6636 -34.6636 -34.6634
   -34.6634 -34.6633 -34.6514 -34.6504 -34.6503 -34.6500 -34.6498 -34.6496
   -34.6496 -34.6495 -34.6493 -34.6493 -34.6491 -34.6490 -34.6489 -34.6489
   -34.6487 -34.6486 -34.6486 -34.6485 -34.6483 -34.6479 -34.6478 -34.6476
   -34.6473 -34.6472 -34.6471 -34.6469 -34.6468 -34.6467 -34.6465 -34.6464
   -34.6464 -34.6463 -34.6462 -34.6461 -34.6460 -34.6459 -25.4828 -25.4826
   -25.4822 -25.4822 -25.4735 -25.4731 -25.4528 -25.4523 -25.4403 -25.4398
   -25.4396 -25.4396 -25.3731 -25.3729 -25.3728 -25.3725 -25.3686 -25.3683
   -25.3680 -25.3680 -25.3663 -25.3658 -25.3641 -25.3637 -25.3637 -25.3636
   -25.3460 -25.3460 -25.3458 -25.3455 -25.3455 -25.3454 -25.3454 -25.3454
   -25.3426 -25.3421 -25.3420 -25.3420 -25.3393 -25.3389 -25.3387 -25.3387
   -25.3386 -25.3385 -25.3364 -25.3362 -25.3260 -25.3255 -25.3092 -25.3090
   -25.3087 -25.3087 -25.2969 -25.2966  -1.6350  -1.4400  -1.2752  -1.2738
    -1.0886  -1.0870  -0.5523  -0.4152  -0.4137  -0.3589  -0.3582  -0.2731
    -0.2715  -0.2440  -0.0858  -0.0851  -0.0301   0.0035   0.0045   0.0715
     0.0932   0.0945   0.0976   0.0980   0.1488   0.2159   0.2684   0.2690
     0.2986   0.3012   0.3019   0.3823   0.3922   0.3931   0.4104   0.4480
     6.6598   6.6604   6.6809   6.8868   6.8875   6.8883   7.0890   7.1093
     7.1100   7.3782   7.4445   7.4809   7.4814   7.4957   7.6602   7.6609
     7.7256   7.7657   7.7938   7.7945   7.8606   7.8609   7.8708   7.8718
     7.9410   8.0747   8.2441   8.2447   8.3500   8.3505   8.5296   8.5301
     8.5899   8.6227   8.6243   8.6910   8.7930   8.8521   8.8531   8.8895
     8.8899   8.9590   8.9596   9.0047   9.0553   9.0559   9.3397   9.3987
     9.3993   9.4498   9.4511   9.5817   9.6038   9.6651   9.7052   9.7221
     9.7308   9.7819   9.7828   9.8257   9.8418   9.8423   9.8748   9.8758
     9.9215   9.9457   9.9472  10.0764  10.3312  10.3801  10.3818  10.4039
    10.4044  10.5117  10.5125  10.5357  10.5369  10.6312  10.6788  10.7256
    10.7264  10.7551  10.7779  10.9184  10.9190  10.9198  10.9867  10.9874
    10.9880  10.9951  11.0275  11.0279  11.0764  11.1012  11.1019  11.1654
    11.2512  11.2520  11.2574  11.2590  11.3763  11.3768  11.5270  11.5283
    11.6282  11.8900  11.8907  11.9865  12.1775  12.1782  12.1826  12.1835
    12.2136  12.2143  12.2516  12.2528  12.2668  12.2674  12.3438  12.3581
    12.3591  12.4100  12.4447  12.6182  12.6289  12.7711

          k = 0.2500-0.4330-0.1957 ( 90083 PWs)   bands (ev):

   -61.1672 -61.1669 -61.1656 -61.1651 -61.1651 -61.1649 -61.1620 -61.1615
   -61.1615 -61.1614 -61.1608 -61.1605 -61.1602 -61.1601 -61.1601 -61.1597
   -61.1597 -61.1589 -34.7049 -34.7048 -34.7023 -34.7022 -34.7020 -34.7020
   -34.7019 -34.7019 -34.7019 -34.7018 -34.7017 -34.7017 -34.7016 -34.7016
   -34.7015 -34.7015 -34.7014 -34.7013 -34.7013 -34.7013 -34.7013 -34.7012
   -34.7012 -34.7012 -34.7012 -34.7012 -34.7011 -34.7011 -34.7009 -34.7009
   -34.7008 -34.7008 -34.7007 -34.7007 -34.7007 -34.7007 -34.7006 -34.7006
   -34.7005 -34.7004 -34.7004 -34.7002 -34.7002 -34.7001 -34.7001 -34.7000
   -34.6997 -34.6996 -34.6995 -34.6993 -34.6992 -34.6991 -34.6990 -34.6989
   -34.6988 -34.6987 -34.6987 -34.6986 -34.6985 -34.6985 -34.6985 -34.6984
   -34.6984 -34.6983 -34.6982 -34.6981 -34.6980 -34.6979 -34.6979 -34.6979
   -34.6976 -34.6976 -34.6685 -34.6680 -34.6665 -34.6665 -34.6663 -34.6663
   -34.6662 -34.6661 -34.6660 -34.6659 -34.6659 -34.6658 -34.6658 -34.6658
   -34.6657 -34.6656 -34.6656 -34.6656 -34.6655 -34.6655 -34.6655 -34.6655
   -34.6654 -34.6654 -34.6654 -34.6653 -34.6653 -34.6653 -34.6652 -34.6652
   -34.6652 -34.6651 -34.6651 -34.6650 -34.6650 -34.6650 -34.6649 -34.6649
   -34.6648 -34.6648 -34.6648 -34.6647 -34.6647 -34.6646 -34.6646 -34.6646
   -34.6645 -34.6645 -34.6645 -34.6645 -34.6644 -34.6644 -34.6644 -34.6643
   -34.6642 -34.6642 -34.6642 -34.6641 -34.6641 -34.6640 -34.6639 -34.6639
   -34.6639 -34.6638 -34.6638 -34.6637 -34.6637 -34.6636 -34.6636 -34.6634
   -34.6634 -34.6633 -34.6514 -34.6504 -34.6503 -34.6500 -34.6498 -34.6496
   -34.6496 -34.6495 -34.6493 -34.6493 -34.6491 -34.6490 -34.6489 -34.6489
   -34.6487 -34.6486 -34.6486 -34.6485 -34.6483 -34.6479 -34.6478 -34.6476
   -34.6473 -34.6472 -34.6471 -34.6469 -34.6468 -34.6467 -34.6465 -34.6464
   -34.6464 -34.6463 -34.6462 -34.6461 -34.6460 -34.6459 -25.4828 -25.4826
   -25.4822 -25.4822 -25.4735 -25.4731 -25.4528 -25.4523 -25.4403 -25.4398
   -25.4396 -25.4396 -25.3731 -25.3729 -25.3728 -25.3725 -25.3686 -25.3683
   -25.3680 -25.3680 -25.3663 -25.3658 -25.3641 -25.3637 -25.3637 -25.3636
   -25.3460 -25.3460 -25.3458 -25.3455 -25.3455 -25.3454 -25.3454 -25.3454
   -25.3426 -25.3421 -25.3420 -25.3420 -25.3393 -25.3389 -25.3387 -25.3387
   -25.3386 -25.3385 -25.3364 -25.3362 -25.3260 -25.3255 -25.3092 -25.3090
   -25.3087 -25.3087 -25.2969 -25.2966  -1.6350  -1.4400  -1.2752  -1.2738
    -1.0886  -1.0870  -0.5523  -0.4152  -0.4137  -0.3589  -0.3582  -0.2731
    -0.2715  -0.2440  -0.0858  -0.0851  -0.0301   0.0035   0.0045   0.0715
     0.0931   0.0945   0.0976   0.0980   0.1488   0.2159   0.2684   0.2690
     0.2986   0.3013   0.3019   0.3823   0.3922   0.3931   0.4104   0.4480
     6.6598   6.6603   6.6809   6.8869   6.8875   6.8883   7.0890   7.1093
     7.1099   7.3782   7.4445   7.4809   7.4814   7.4957   7.6603   7.6609
     7.7256   7.7656   7.7938   7.7945   7.8605   7.8611   7.8709   7.8718
     7.9411   8.0747   8.2441   8.2447   8.3499   8.3504   8.5297   8.5300
     8.5898   8.6227   8.6244   8.6909   8.7933   8.8520   8.8531   8.8895
     8.8900   8.9590   8.9595   9.0049   9.0552   9.0558   9.3396   9.3985
     9.3994   9.4501   9.4510   9.5814   9.6038   9.6649   9.7052   9.7223
     9.7309   9.7822   9.7827   9.8259   9.8417   9.8423   9.8746   9.8759
     9.9214   9.9458   9.9472  10.0765  10.3311  10.3799  10.3818  10.4038
    10.4044  10.5118  10.5126  10.5358  10.5369  10.6311  10.6789  10.7257
    10.7263  10.7551  10.7779  10.9184  10.9187  10.9201  10.9865  10.9874
    10.9880  10.9950  11.0275  11.0280  11.0765  11.1012  11.1019  11.1652
    11.2511  11.2520  11.2574  11.2588  11.3763  11.3769  11.5269  11.5283
    11.6281  11.8899  11.8909  11.9867  12.1776  12.1781  12.1825  12.1836
    12.2136  12.2144  12.2518  12.2526  12.2667  12.2676  12.3437  12.3581
    12.3590  12.4101  12.4447  12.6182  12.6287  12.7712

          k = 0.5000-0.0000 0.1957 ( 90083 PWs)   bands (ev):

   -61.1672 -61.1669 -61.1656 -61.1651 -61.1651 -61.1650 -61.1620 -61.1616
   -61.1615 -61.1615 -61.1608 -61.1604 -61.1602 -61.1602 -61.1601 -61.1597
   -61.1597 -61.1589 -34.7049 -34.7048 -34.7024 -34.7023 -34.7020 -34.7020
   -34.7019 -34.7019 -34.7018 -34.7017 -34.7017 -34.7017 -34.7016 -34.7015
   -34.7015 -34.7015 -34.7014 -34.7013 -34.7013 -34.7013 -34.7013 -34.7012
   -34.7012 -34.7012 -34.7012 -34.7012 -34.7011 -34.7011 -34.7010 -34.7009
   -34.7008 -34.7008 -34.7008 -34.7007 -34.7007 -34.7006 -34.7006 -34.7006
   -34.7006 -34.7004 -34.7003 -34.7003 -34.7002 -34.7001 -34.7001 -34.7000
   -34.6997 -34.6996 -34.6995 -34.6993 -34.6992 -34.6991 -34.6990 -34.6989
   -34.6988 -34.6987 -34.6987 -34.6986 -34.6985 -34.6985 -34.6985 -34.6984
   -34.6984 -34.6983 -34.6982 -34.6981 -34.6980 -34.6979 -34.6979 -34.6979
   -34.6976 -34.6976 -34.6685 -34.6680 -34.6666 -34.6665 -34.6663 -34.6662
   -34.6662 -34.6661 -34.6660 -34.6660 -34.6659 -34.6658 -34.6658 -34.6657
   -34.6657 -34.6656 -34.6656 -34.6655 -34.6655 -34.6655 -34.6655 -34.6655
   -34.6654 -34.6654 -34.6654 -34.6654 -34.6653 -34.6652 -34.6652 -34.6652
   -34.6652 -34.6651 -34.6651 -34.6650 -34.6650 -34.6649 -34.6649 -34.6648
   -34.6648 -34.6648 -34.6648 -34.6647 -34.6647 -34.6646 -34.6646 -34.6646
   -34.6646 -34.6645 -34.6645 -34.6645 -34.6644 -34.6644 -34.6644 -34.6643
   -34.6643 -34.6642 -34.6642 -34.6642 -34.6641 -34.6640 -34.6640 -34.6639
   -34.6638 -34.6638 -34.6638 -34.6637 -34.6637 -34.6636 -34.6636 -34.6634
   -34.6634 -34.6633 -34.6514 -34.6505 -34.6502 -34.6500 -34.6498 -34.6496
   -34.6496 -34.6495 -34.6494 -34.6492 -34.6492 -34.6490 -34.6489 -34.6489
   -34.6487 -34.6486 -34.6486 -34.6485 -34.6483 -34.6479 -34.6478 -34.6476
   -34.6473 -34.6472 -34.6471 -34.6470 -34.6468 -34.6466 -34.6466 -34.6464
   -34.6464 -34.6463 -34.6462 -34.6461 -34.6460 -34.6459 -25.4828 -25.4825
   -25.4822 -25.4822 -25.4736 -25.4731 -25.4527 -25.4523 -25.4403 -25.4399
   -25.4396 -25.4396 -25.3731 -25.3729 -25.3728 -25.3725 -25.3686 -25.3683
   -25.3680 -25.3680 -25.3663 -25.3658 -25.3641 -25.3637 -25.3637 -25.3636
   -25.3460 -25.3459 -25.3458 -25.3455 -25.3455 -25.3454 -25.3454 -25.3454
   -25.3426 -25.3422 -25.3420 -25.3420 -25.3393 -25.3389 -25.3387 -25.3387
   -25.3386 -25.3385 -25.3364 -25.3362 -25.3259 -25.3255 -25.3092 -25.3090
   -25.3087 -25.3087 -25.2970 -25.2966  -1.6350  -1.4400  -1.2750  -1.2739
    -1.0885  -1.0871  -0.5523  -0.4150  -0.4138  -0.3586  -0.3585  -0.2729
    -0.2716  -0.2440  -0.0857  -0.0852  -0.0302   0.0033   0.0045   0.0715
     0.0931   0.0945   0.0975   0.0979   0.1489   0.2160   0.2683   0.2690
     0.2987   0.3013   0.3019   0.3823   0.3924   0.3931   0.4104   0.4479
     6.6598   6.6605   6.6809   6.8868   6.8875   6.8884   7.0889   7.1095
     7.1098   7.3783   7.4445   7.4808   7.4815   7.4958   7.6602   7.6608
     7.7257   7.7657   7.7936   7.7945   7.8605   7.8609   7.8708   7.8717
     7.9408   8.0746   8.2440   8.2448   8.3499   8.3506   8.5293   8.5301
     8.5902   8.6231   8.6242   8.6910   8.7930   8.8525   8.8530   8.8896
     8.8898   8.9591   8.9596   9.0047   9.0550   9.0561   9.3400   9.3987
     9.3994   9.4499   9.4509   9.5820   9.6038   9.6651   9.7051   9.7221
     9.7308   9.7817   9.7828   9.8256   9.8416   9.8423   9.8750   9.8757
     9.9214   9.9461   9.9469  10.0764  10.3313  10.3803  10.3815  10.4038
    10.4045  10.5114  10.5126  10.5358  10.5365  10.6317  10.6784  10.7255
    10.7268  10.7553  10.7780  10.9183  10.9190  10.9200  10.9865  10.9875
    10.9879  10.9947  11.0275  11.0279  11.0760  11.1013  11.1017  11.1654
    11.2512  11.2519  11.2575  11.2587  11.3761  11.3769  11.5269  11.5284
    11.6284  11.8900  11.8908  11.9864  12.1775  12.1782  12.1827  12.1836
    12.2136  12.2142  12.2515  12.2527  12.2667  12.2673  12.3438  12.3581
    12.3591  12.4099  12.4447  12.6181  12.6291  12.7713

          k =-0.5000 0.0000 0.1957 ( 90083 PWs)   bands (ev):

   -61.1672 -61.1669 -61.1656 -61.1651 -61.1651 -61.1650 -61.1620 -61.1616
   -61.1615 -61.1615 -61.1608 -61.1604 -61.1602 -61.1602 -61.1601 -61.1597
   -61.1597 -61.1589 -34.7049 -34.7048 -34.7024 -34.7023 -34.7020 -34.7020
   -34.7019 -34.7019 -34.7018 -34.7017 -34.7017 -34.7017 -34.7016 -34.7015
   -34.7015 -34.7015 -34.7014 -34.7013 -34.7013 -34.7013 -34.7013 -34.7012
   -34.7012 -34.7012 -34.7012 -34.7012 -34.7011 -34.7011 -34.7010 -34.7009
   -34.7008 -34.7008 -34.7008 -34.7007 -34.7007 -34.7006 -34.7006 -34.7006
   -34.7006 -34.7004 -34.7003 -34.7003 -34.7002 -34.7001 -34.7001 -34.7000
   -34.6997 -34.6996 -34.6995 -34.6993 -34.6992 -34.6991 -34.6990 -34.6989
   -34.6988 -34.6987 -34.6987 -34.6986 -34.6985 -34.6985 -34.6985 -34.6984
   -34.6984 -34.6983 -34.6982 -34.6981 -34.6980 -34.6979 -34.6979 -34.6979
   -34.6976 -34.6976 -34.6685 -34.6680 -34.6666 -34.6665 -34.6663 -34.6662
   -34.6662 -34.6661 -34.6660 -34.6660 -34.6659 -34.6658 -34.6658 -34.6657
   -34.6657 -34.6656 -34.6656 -34.6655 -34.6655 -34.6655 -34.6655 -34.6655
   -34.6654 -34.6654 -34.6654 -34.6654 -34.6653 -34.6653 -34.6652 -34.6652
   -34.6652 -34.6651 -34.6651 -34.6650 -34.6650 -34.6649 -34.6649 -34.6649
   -34.6648 -34.6648 -34.6647 -34.6647 -34.6647 -34.6646 -34.6646 -34.6646
   -34.6645 -34.6645 -34.6645 -34.6645 -34.6644 -34.6644 -34.6644 -34.6643
   -34.6643 -34.6642 -34.6642 -34.6641 -34.6641 -34.6640 -34.6639 -34.6639
   -34.6638 -34.6638 -34.6638 -34.6637 -34.6637 -34.6636 -34.6636 -34.6634
   -34.6634 -34.6633 -34.6514 -34.6505 -34.6502 -34.6500 -34.6498 -34.6496
   -34.6496 -34.6495 -34.6494 -34.6492 -34.6492 -34.6490 -34.6489 -34.6489
   -34.6487 -34.6486 -34.6486 -34.6485 -34.6483 -34.6479 -34.6478 -34.6476
   -34.6473 -34.6472 -34.6471 -34.6470 -34.6468 -34.6466 -34.6466 -34.6464
   -34.6464 -34.6463 -34.6462 -34.6461 -34.6460 -34.6459 -25.4828 -25.4825
   -25.4822 -25.4822 -25.4736 -25.4731 -25.4527 -25.4523 -25.4403 -25.4399
   -25.4396 -25.4396 -25.3731 -25.3729 -25.3728 -25.3725 -25.3686 -25.3683
   -25.3680 -25.3680 -25.3663 -25.3658 -25.3641 -25.3637 -25.3637 -25.3636
   -25.3460 -25.3459 -25.3458 -25.3455 -25.3455 -25.3454 -25.3454 -25.3454
   -25.3426 -25.3422 -25.3420 -25.3420 -25.3393 -25.3389 -25.3387 -25.3387
   -25.3386 -25.3385 -25.3364 -25.3362 -25.3259 -25.3255 -25.3092 -25.3090
   -25.3087 -25.3087 -25.2970 -25.2966  -1.6350  -1.4400  -1.2750  -1.2739
    -1.0885  -1.0871  -0.5523  -0.4150  -0.4138  -0.3586  -0.3585  -0.2729
    -0.2716  -0.2440  -0.0857  -0.0852  -0.0302   0.0033   0.0045   0.0715
     0.0930   0.0945   0.0976   0.0979   0.1489   0.2160   0.2682   0.2690
     0.2987   0.3014   0.3019   0.3823   0.3923   0.3931   0.4105   0.4479
     6.6598   6.6605   6.6809   6.8869   6.8874   6.8884   7.0889   7.1094
     7.1098   7.3782   7.4446   7.4809   7.4814   7.4957   7.6603   7.6608
     7.7258   7.7657   7.7937   7.7944   7.8602   7.8611   7.8711   7.8717
     7.9409   8.0745   8.2441   8.2450   8.3499   8.3504   8.5293   8.5302
     8.5900   8.6231   8.6243   8.6908   8.7934   8.8523   8.8530   8.8896
     8.8899   8.9591   8.9594   9.0052   9.0550   9.0558   9.3397   9.3986
     9.3992   9.4503   9.4509   9.5815   9.6038   9.6647   9.7051   9.7226
     9.7311   9.7821   9.7828   9.8259   9.8414   9.8424   9.8748   9.8757
     9.9212   9.9463   9.9470  10.0766  10.3310  10.3801  10.3815  10.4036
    10.4045  10.5117  10.5127  10.5360  10.5364  10.6315  10.6786  10.7256
    10.7267  10.7552  10.7781  10.9184  10.9188  10.9204  10.9863  10.9874
    10.9879  10.9946  11.0275  11.0280  11.0760  11.1011  11.1020  11.1651
    11.2512  11.2518  11.2574  11.2584  11.3762  11.3772  11.5267  11.5283
    11.6283  11.8898  11.8910  11.9869  12.1776  12.1780  12.1826  12.1838
    12.2135  12.2143  12.2518  12.2525  12.2665  12.2676  12.3437  12.3582
    12.3590  12.4100  12.4448  12.6181  12.6286  12.7714

          k =-0.2500 0.1443 0.1957 ( 89997 PWs)   bands (ev):

   -61.1682 -61.1680 -61.1646 -61.1643 -61.1634 -61.1630 -61.1630 -61.1630
   -61.1615 -61.1614 -61.1612 -61.1612 -61.1607 -61.1607 -61.1595 -61.1594
   -61.1594 -61.1588 -34.7049 -34.7049 -34.7025 -34.7023 -34.7022 -34.7021
   -34.7020 -34.7020 -34.7019 -34.7018 -34.7018 -34.7018 -34.7016 -34.7016
   -34.7016 -34.7016 -34.7016 -34.7015 -34.7015 -34.7015 -34.7014 -34.7014
   -34.7014 -34.7013 -34.7013 -34.7011 -34.7011 -34.7010 -34.7010 -34.7009
   -34.7009 -34.7009 -34.7008 -34.7008 -34.7005 -34.7005 -34.7005 -34.7004
   -34.7003 -34.7000 -34.6999 -34.6997 -34.6997 -34.6996 -34.6996 -34.6996
   -34.6994 -34.6993 -34.6992 -34.6992 -34.6992 -34.6991 -34.6990 -34.6989
   -34.6989 -34.6988 -34.6988 -34.6987 -34.6987 -34.6985 -34.6985 -34.6985
   -34.6984 -34.6984 -34.6984 -34.6983 -34.6983 -34.6981 -34.6980 -34.6980
   -34.6980 -34.6976 -34.6685 -34.6681 -34.6667 -34.6666 -34.6662 -34.6661
   -34.6661 -34.6661 -34.6660 -34.6660 -34.6659 -34.6659 -34.6658 -34.6657
   -34.6657 -34.6656 -34.6656 -34.6655 -34.6654 -34.6654 -34.6654 -34.6654
   -34.6654 -34.6653 -34.6653 -34.6653 -34.6653 -34.6653 -34.6652 -34.6652
   -34.6652 -34.6651 -34.6651 -34.6651 -34.6650 -34.6650 -34.6650 -34.6649
   -34.6648 -34.6648 -34.6648 -34.6648 -34.6647 -34.6647 -34.6647 -34.6647
   -34.6647 -34.6646 -34.6646 -34.6645 -34.6645 -34.6644 -34.6643 -34.6643
   -34.6643 -34.6642 -34.6642 -34.6641 -34.6641 -34.6641 -34.6640 -34.6640
   -34.6638 -34.6638 -34.6636 -34.6636 -34.6636 -34.6636 -34.6635 -34.6634
   -34.6634 -34.6632 -34.6514 -34.6505 -34.6502 -34.6500 -34.6497 -34.6496
   -34.6494 -34.6494 -34.6493 -34.6492 -34.6492 -34.6492 -34.6489 -34.6488
   -34.6488 -34.6487 -34.6485 -34.6485 -34.6484 -34.6479 -34.6477 -34.6475
   -34.6472 -34.6471 -34.6470 -34.6468 -34.6467 -34.6467 -34.6467 -34.6466
   -34.6464 -34.6463 -34.6463 -34.6462 -34.6459 -34.6459 -25.4767 -25.4762
   -25.4589 -25.4586 -25.4583 -25.4583 -25.4556 -25.4552 -25.4549 -25.4549
   -25.4172 -25.4168 -25.4166 -25.4166 -25.3931 -25.3930 -25.3926 -25.3926
   -25.3896 -25.3891 -25.3783 -25.3780 -25.3601 -25.3598 -25.3534 -25.3533
   -25.3531 -25.3531 -25.3442 -25.3442 -25.3439 -25.3439 -25.3417 -25.3415
   -25.3355 -25.3354 -25.3350 -25.3350 -25.3350 -25.3350 -25.3348 -25.3348
   -25.3316 -25.3312 -25.3233 -25.3232 -25.3228 -25.3228 -25.3110 -25.3106
   -25.3009 -25.3005 -25.2902 -25.2899  -1.8283  -1.6305  -1.1092  -0.9281
    -0.8049  -0.8035  -0.6566  -0.6373  -0.6357  -0.3309  -0.3258  -0.3245
    -0.2709  -0.1934  -0.1919  -0.1708  -0.1091  -0.1086  -0.0568  -0.0156
     0.1114   0.1120   0.1384   0.1389   0.2122   0.2271   0.2284   0.2809
     0.2823   0.2922   0.2928   0.3364   0.4294   0.4302   0.4841   0.4848
     6.4384   6.7445   6.9793   7.0846   7.0849   7.2626   7.2685   7.3146
     7.3151   7.3188   7.3195   7.4287   7.4297   7.4798   7.4807   7.6319
     7.6330   7.7680   7.7687   7.8983   7.9370   7.9389   7.9391   7.9899
     8.0865   8.0870   8.1290   8.1294   8.1684   8.1696   8.4275   8.4281
     8.5137   8.5447   8.5462   8.5468   8.6696   8.7127   8.7133   8.8984
     8.8989   9.0060   9.0078   9.0222   9.0225   9.0496   9.1161   9.1173
     9.1190   9.1193   9.1846   9.3056   9.3067   9.5522   9.6737   9.6744
     9.8043   9.8051   9.8168   9.8184   9.9159   9.9369   9.9627   9.9641
     9.9666   9.9672  10.0226  10.1849  10.1865  10.1874  10.2121  10.5599
    10.5920  10.6146  10.6349  10.6735  10.6744  10.6979  10.8994  10.8998
    10.9255  10.9255  10.9538  10.9544  10.9856  11.0622  11.0660  11.0674
    11.0731  11.1053  11.1057  11.1517  11.1525  11.1989  11.2500  11.2507
    11.2643  11.2647  11.2733  11.4191  11.4743  11.5337  11.5341  11.6075
    11.6105  11.7150  11.7231  11.8930  11.9054  11.9213  11.9960  11.9968
    12.0108  12.0435  12.0438  12.0718  12.0724  12.0824  12.1484  12.1488
    12.5862  12.5863  12.7623  12.7625  12.8118  13.1174

          k =-0.2500-0.1443-0.1957 ( 89997 PWs)   bands (ev):

   -61.1682 -61.1680 -61.1646 -61.1643 -61.1633 -61.1632 -61.1630 -61.1630
   -61.1616 -61.1613 -61.1612 -61.1612 -61.1607 -61.1607 -61.1594 -61.1594
   -61.1594 -61.1588 -34.7049 -34.7048 -34.7025 -34.7023 -34.7021 -34.7021
   -34.7020 -34.7020 -34.7019 -34.7018 -34.7018 -34.7017 -34.7016 -34.7016
   -34.7016 -34.7016 -34.7016 -34.7015 -34.7015 -34.7014 -34.7014 -34.7014
   -34.7014 -34.7013 -34.7012 -34.7011 -34.7011 -34.7010 -34.7010 -34.7010
   -34.7009 -34.7009 -34.7008 -34.7008 -34.7005 -34.7005 -34.7005 -34.7004
   -34.7002 -34.7000 -34.6999 -34.6997 -34.6997 -34.6997 -34.6996 -34.6996
   -34.6994 -34.6993 -34.6992 -34.6992 -34.6991 -34.6991 -34.6990 -34.6989
   -34.6989 -34.6988 -34.6988 -34.6987 -34.6987 -34.6985 -34.6985 -34.6985
   -34.6985 -34.6984 -34.6984 -34.6983 -34.6983 -34.6981 -34.6980 -34.6980
   -34.6980 -34.6976 -34.6685 -34.6681 -34.6667 -34.6666 -34.6662 -34.6661
   -34.6661 -34.6660 -34.6660 -34.6660 -34.6659 -34.6658 -34.6658 -34.6657
   -34.6657 -34.6656 -34.6656 -34.6655 -34.6655 -34.6654 -34.6654 -34.6654
   -34.6654 -34.6653 -34.6653 -34.6653 -34.6653 -34.6652 -34.6652 -34.6652
   -34.6652 -34.6651 -34.6651 -34.6651 -34.6650 -34.6650 -34.6650 -34.6649
   -34.6648 -34.6648 -34.6648 -34.6648 -34.6648 -34.6647 -34.6647 -34.6647
   -34.6647 -34.6646 -34.6646 -34.6645 -34.6645 -34.6644 -34.6643 -34.6643
   -34.6643 -34.6642 -34.6642 -34.6641 -34.6641 -34.6641 -34.6640 -34.6639
   -34.6638 -34.6637 -34.6636 -34.6636 -34.6636 -34.6635 -34.6635 -34.6634
   -34.6633 -34.6632 -34.6514 -34.6505 -34.6502 -34.6500 -34.6498 -34.6496
   -34.6494 -34.6494 -34.6493 -34.6492 -34.6492 -34.6492 -34.6489 -34.6488
   -34.6488 -34.6487 -34.6485 -34.6485 -34.6484 -34.6479 -34.6478 -34.6475
   -34.6472 -34.6471 -34.6470 -34.6468 -34.6467 -34.6467 -34.6467 -34.6466
   -34.6463 -34.6463 -34.6463 -34.6462 -34.6459 -34.6459 -25.4767 -25.4762
   -25.4589 -25.4586 -25.4583 -25.4583 -25.4556 -25.4552 -25.4549 -25.4549
   -25.4172 -25.4170 -25.4166 -25.4166 -25.3932 -25.3929 -25.3926 -25.3926
   -25.3895 -25.3891 -25.3783 -25.3780 -25.3601 -25.3598 -25.3534 -25.3533
   -25.3531 -25.3531 -25.3443 -25.3442 -25.3439 -25.3439 -25.3417 -25.3415
   -25.3355 -25.3352 -25.3350 -25.3350 -25.3350 -25.3350 -25.3348 -25.3348
   -25.3316 -25.3312 -25.3234 -25.3229 -25.3228 -25.3228 -25.3110 -25.3106
   -25.3009 -25.3005 -25.2903 -25.2899  -1.8283  -1.6305  -1.1093  -0.9282
    -0.8047  -0.8035  -0.6566  -0.6371  -0.6358  -0.3309  -0.3256  -0.3245
    -0.2708  -0.1933  -0.1919  -0.1710  -0.1092  -0.1086  -0.0569  -0.0155
     0.1111   0.1120   0.1383   0.1389   0.2123   0.2272   0.2284   0.2809
     0.2823   0.2921   0.2928   0.3367   0.4295   0.4302   0.4840   0.4848
     6.4383   6.7448   6.9796   7.0845   7.0848   7.2626   7.2685   7.3145
     7.3150   7.3186   7.3195   7.4288   7.4296   7.4800   7.4807   7.6321
     7.6326   7.7679   7.7688   7.8983   7.9365   7.9389   7.9391   7.9896
     8.0865   8.0871   8.1290   8.1291   8.1682   8.1697   8.4276   8.4283
     8.5132   8.5448   8.5460   8.5470   8.6698   8.7132   8.7134   8.8983
     8.8988   9.0066   9.0077   9.0222   9.0227   9.0493   9.1162   9.1173
     9.1190   9.1193   9.1850   9.3058   9.3066   9.5523   9.6743   9.6745
     9.8048   9.8052   9.8168   9.8179   9.9160   9.9363   9.9634   9.9641
     9.9668   9.9674  10.0221  10.1848  10.1862  10.1873  10.2119  10.5592
    10.5923  10.6148  10.6342  10.6734  10.6738  10.6981  10.8985  10.8995
    10.9250  10.9261  10.9536  10.9542  10.9865  11.0625  11.0664  11.0672
    11.0740  11.1052  11.1057  11.1512  11.1519  11.1991  11.2501  11.2506
    11.2641  11.2659  11.2734  11.4179  11.4732  11.5335  11.5338  11.6075
    11.6114  11.7155  11.7230  11.8929  11.9053  11.9218  11.9958  11.9963
    12.0113  12.0429  12.0433  12.0719  12.0728  12.0828  12.1482  12.1490
    12.5861  12.5864  12.7622  12.7625  12.8122  13.1174

          k = 0.2500 0.1443-0.1957 ( 89997 PWs)   bands (ev):

   -61.1682 -61.1680 -61.1646 -61.1643 -61.1633 -61.1632 -61.1630 -61.1630
   -61.1616 -61.1613 -61.1612 -61.1612 -61.1607 -61.1607 -61.1594 -61.1594
   -61.1594 -61.1588 -34.7049 -34.7048 -34.7025 -34.7023 -34.7021 -34.7021
   -34.7020 -34.7020 -34.7019 -34.7018 -34.7018 -34.7017 -34.7016 -34.7016
   -34.7016 -34.7016 -34.7016 -34.7015 -34.7015 -34.7014 -34.7014 -34.7014
   -34.7014 -34.7013 -34.7012 -34.7011 -34.7011 -34.7010 -34.7010 -34.7010
   -34.7009 -34.7009 -34.7008 -34.7008 -34.7005 -34.7005 -34.7005 -34.7004
   -34.7002 -34.7000 -34.6999 -34.6997 -34.6997 -34.6997 -34.6996 -34.6996
   -34.6994 -34.6993 -34.6992 -34.6992 -34.6991 -34.6991 -34.6990 -34.6989
   -34.6989 -34.6988 -34.6988 -34.6987 -34.6987 -34.6985 -34.6985 -34.6985
   -34.6985 -34.6984 -34.6984 -34.6983 -34.6983 -34.6981 -34.6980 -34.6980
   -34.6980 -34.6976 -34.6685 -34.6681 -34.6667 -34.6666 -34.6662 -34.6661
   -34.6661 -34.6660 -34.6660 -34.6660 -34.6659 -34.6659 -34.6658 -34.6657
   -34.6657 -34.6656 -34.6656 -34.6655 -34.6655 -34.6654 -34.6654 -34.6654
   -34.6654 -34.6653 -34.6653 -34.6653 -34.6653 -34.6652 -34.6652 -34.6652
   -34.6652 -34.6651 -34.6651 -34.6651 -34.6651 -34.6650 -34.6650 -34.6649
   -34.6649 -34.6648 -34.6648 -34.6648 -34.6648 -34.6647 -34.6647 -34.6647
   -34.6647 -34.6646 -34.6646 -34.6645 -34.6645 -34.6644 -34.6643 -34.6643
   -34.6643 -34.6642 -34.6642 -34.6641 -34.6641 -34.6641 -34.6640 -34.6639
   -34.6638 -34.6637 -34.6636 -34.6636 -34.6636 -34.6635 -34.6635 -34.6634
   -34.6633 -34.6632 -34.6514 -34.6505 -34.6502 -34.6500 -34.6498 -34.6496
   -34.6494 -34.6494 -34.6493 -34.6492 -34.6492 -34.6492 -34.6489 -34.6488
   -34.6488 -34.6487 -34.6485 -34.6485 -34.6484 -34.6479 -34.6478 -34.6475
   -34.6472 -34.6471 -34.6470 -34.6468 -34.6467 -34.6467 -34.6467 -34.6466
   -34.6463 -34.6463 -34.6463 -34.6462 -34.6459 -34.6459 -25.4767 -25.4762
   -25.4589 -25.4586 -25.4583 -25.4583 -25.4556 -25.4552 -25.4549 -25.4549
   -25.4172 -25.4170 -25.4166 -25.4166 -25.3932 -25.3929 -25.3926 -25.3926
   -25.3895 -25.3891 -25.3783 -25.3780 -25.3601 -25.3598 -25.3534 -25.3533
   -25.3531 -25.3531 -25.3443 -25.3442 -25.3439 -25.3439 -25.3417 -25.3415
   -25.3355 -25.3352 -25.3350 -25.3350 -25.3350 -25.3350 -25.3348 -25.3348
   -25.3316 -25.3312 -25.3234 -25.3229 -25.3228 -25.3228 -25.3110 -25.3106
   -25.3009 -25.3005 -25.2903 -25.2899  -1.8283  -1.6305  -1.1093  -0.9282
    -0.8047  -0.8035  -0.6566  -0.6371  -0.6358  -0.3309  -0.3256  -0.3245
    -0.2708  -0.1933  -0.1919  -0.1710  -0.1092  -0.1086  -0.0569  -0.0155
     0.1111   0.1120   0.1383   0.1389   0.2124   0.2271   0.2284   0.2810
     0.2823   0.2921   0.2929   0.3367   0.4294   0.4302   0.4841   0.4848
     6.4384   6.7447   6.9796   7.0846   7.0849   7.2625   7.2686   7.3145
     7.3147   7.3187   7.3194   7.4287   7.4299   7.4797   7.4806   7.6319
     7.6329   7.7681   7.7686   7.8983   7.9366   7.9393   7.9396   7.9895
     8.0863   8.0863   8.1291   8.1301   8.1686   8.1700   8.4266   8.4276
     8.5131   8.5452   8.5461   8.5466   8.6702   8.7130   8.7136   8.8983
     8.8988   9.0069   9.0072   9.0222   9.0230   9.0493   9.1163   9.1171
     9.1189   9.1195   9.1845   9.3062   9.3070   9.5525   9.6732   9.6741
     9.8047   9.8052   9.8173   9.8183   9.9160   9.9364   9.9638   9.9643
     9.9669   9.9673  10.0220  10.1845  10.1861  10.1874  10.2119  10.5592
    10.5923  10.6148  10.6343  10.6734  10.6743  10.6987  10.8990  10.8993
    10.9250  10.9256  10.9534  10.9542  10.9859  11.0622  11.0666  11.0672
    11.0737  11.1049  11.1057  11.1514  11.1524  11.1990  11.2499  11.2503
    11.2648  11.2651  11.2734  11.4179  11.4732  11.5333  11.5342  11.6082
    11.6113  11.7156  11.7230  11.8933  11.9053  11.9217  11.9958  11.9964
    12.0107  12.0429  12.0433  12.0716  12.0726  12.0832  12.1485  12.1492
    12.5862  12.5864  12.7621  12.7625  12.8119  13.1176

          k = 0.0000-0.2887 0.1957 ( 89997 PWs)   bands (ev):

   -61.1682 -61.1680 -61.1646 -61.1643 -61.1634 -61.1630 -61.1630 -61.1630
   -61.1616 -61.1614 -61.1612 -61.1612 -61.1607 -61.1607 -61.1595 -61.1594
   -61.1594 -61.1588 -34.7049 -34.7049 -34.7024 -34.7023 -34.7023 -34.7021
   -34.7020 -34.7020 -34.7019 -34.7018 -34.7018 -34.7017 -34.7017 -34.7016
   -34.7016 -34.7016 -34.7016 -34.7015 -34.7015 -34.7014 -34.7014 -34.7014
   -34.7014 -34.7013 -34.7013 -34.7011 -34.7011 -34.7010 -34.7010 -34.7009
   -34.7009 -34.7009 -34.7008 -34.7008 -34.7005 -34.7005 -34.7005 -34.7004
   -34.7003 -34.7001 -34.6997 -34.6997 -34.6997 -34.6996 -34.6996 -34.6995
   -34.6994 -34.6993 -34.6992 -34.6992 -34.6992 -34.6991 -34.6991 -34.6990
   -34.6989 -34.6988 -34.6988 -34.6987 -34.6987 -34.6985 -34.6985 -34.6985
   -34.6985 -34.6984 -34.6984 -34.6983 -34.6983 -34.6981 -34.6980 -34.6980
   -34.6980 -34.6976 -34.6685 -34.6681 -34.6667 -34.6666 -34.6662 -34.6662
   -34.6661 -34.6661 -34.6660 -34.6659 -34.6659 -34.6658 -34.6658 -34.6657
   -34.6657 -34.6656 -34.6656 -34.6655 -34.6655 -34.6654 -34.6654 -34.6654
   -34.6654 -34.6653 -34.6653 -34.6653 -34.6653 -34.6652 -34.6652 -34.6652
   -34.6651 -34.6651 -34.6651 -34.6651 -34.6651 -34.6650 -34.6650 -34.6649
   -34.6648 -34.6648 -34.6648 -34.6648 -34.6648 -34.6647 -34.6647 -34.6647
   -34.6647 -34.6646 -34.6646 -34.6645 -34.6645 -34.6644 -34.6643 -34.6643
   -34.6643 -34.6642 -34.6642 -34.6641 -34.6641 -34.6641 -34.6640 -34.6639
   -34.6638 -34.6638 -34.6636 -34.6636 -34.6636 -34.6635 -34.6635 -34.6634
   -34.6633 -34.6632 -34.6514 -34.6505 -34.6502 -34.6500 -34.6497 -34.6496
   -34.6494 -34.6494 -34.6493 -34.6492 -34.6492 -34.6491 -34.6489 -34.6488
   -34.6488 -34.6487 -34.6485 -34.6484 -34.6484 -34.6479 -34.6478 -34.6475
   -34.6472 -34.6471 -34.6469 -34.6469 -34.6468 -34.6467 -34.6467 -34.6465
   -34.6464 -34.6463 -34.6463 -34.6462 -34.6459 -34.6459 -25.4767 -25.4762
   -25.4589 -25.4586 -25.4583 -25.4583 -25.4556 -25.4552 -25.4549 -25.4549
   -25.4172 -25.4169 -25.4166 -25.4166 -25.3932 -25.3930 -25.3926 -25.3926
   -25.3895 -25.3891 -25.3783 -25.3780 -25.3601 -25.3598 -25.3534 -25.3533
   -25.3531 -25.3531 -25.3442 -25.3442 -25.3439 -25.3439 -25.3417 -25.3415
   -25.3355 -25.3353 -25.3350 -25.3350 -25.3350 -25.3350 -25.3348 -25.3348
   -25.3316 -25.3312 -25.3233 -25.3230 -25.3228 -25.3228 -25.3110 -25.3106
   -25.3009 -25.3005 -25.2903 -25.2899  -1.8283  -1.6305  -1.1092  -0.9281
    -0.8049  -0.8034  -0.6566  -0.6373  -0.6356  -0.3309  -0.3258  -0.3244
    -0.2709  -0.1934  -0.1918  -0.1709  -0.1093  -0.1084  -0.0569  -0.0156
     0.1112   0.1121   0.1383   0.1390   0.2123   0.2271   0.2284   0.2809
     0.2823   0.2921   0.2929   0.3366   0.4295   0.4302   0.4840   0.4848
     6.4384   6.7446   6.9794   7.0845   7.0849   7.2626   7.2685   7.3144
     7.3152   7.3185   7.3197   7.4285   7.4299   7.4798   7.4808   7.6319
     7.6329   7.7680   7.7688   7.8983   7.9367   7.9389   7.9391   7.9897
     8.0864   8.0871   8.1290   8.1292   8.1683   8.1696   8.4275   8.4284
     8.5135   8.5447   8.5461   8.5470   8.6697   8.7129   8.7134   8.8982
     8.8990   9.0063   9.0078   9.0222   9.0226   9.0494   9.1156   9.1177
     9.1189   9.1195   9.1848   9.3053   9.3070   9.5523   9.6741   9.6744
     9.8045   9.8052   9.8164   9.8186   9.9159   9.9366   9.9629   9.9642
     9.9666   9.9675  10.0223  10.1848  10.1864  10.1873  10.2120  10.5596
    10.5922  10.6147  10.6346  10.6734  10.6742  10.6980  10.8989  10.8997
    10.9253  10.9258  10.9534  10.9546  10.9860  11.0624  11.0660  11.0675
    11.0735  11.1053  11.1057  11.1511  11.1525  11.1990  11.2499  11.2508
    11.2644  11.2652  11.2734  11.4185  11.4737  11.5335  11.5340  11.6075
    11.6110  11.7152  11.7231  11.8929  11.9054  11.9215  11.9957  11.9968
    12.0111  12.0430  12.0437  12.0717  12.0728  12.0826  12.1483  12.1490
    12.5862  12.5864  12.7622  12.7625  12.8120  13.1174

          k = 0.0000 0.2887 0.1957 ( 89997 PWs)   bands (ev):

   -61.1682 -61.1680 -61.1646 -61.1643 -61.1634 -61.1630 -61.1630 -61.1630
   -61.1616 -61.1614 -61.1612 -61.1612 -61.1607 -61.1607 -61.1595 -61.1594
   -61.1594 -61.1588 -34.7049 -34.7049 -34.7024 -34.7023 -34.7023 -34.7021
   -34.7020 -34.7020 -34.7019 -34.7018 -34.7018 -34.7017 -34.7017 -34.7016
   -34.7016 -34.7016 -34.7016 -34.7015 -34.7015 -34.7014 -34.7014 -34.7014
   -34.7014 -34.7013 -34.7012 -34.7011 -34.7011 -34.7010 -34.7010 -34.7009
   -34.7009 -34.7009 -34.7008 -34.7008 -34.7005 -34.7005 -34.7005 -34.7004
   -34.7003 -34.7001 -34.6997 -34.6997 -34.6997 -34.6996 -34.6996 -34.6995
   -34.6994 -34.6993 -34.6992 -34.6992 -34.6992 -34.6991 -34.6991 -34.6990
   -34.6989 -34.6988 -34.6988 -34.6987 -34.6987 -34.6985 -34.6985 -34.6985
   -34.6985 -34.6984 -34.6984 -34.6983 -34.6983 -34.6981 -34.6980 -34.6980
   -34.6980 -34.6976 -34.6685 -34.6681 -34.6667 -34.6666 -34.6662 -34.6662
   -34.6661 -34.6661 -34.6660 -34.6659 -34.6659 -34.6659 -34.6658 -34.6657
   -34.6657 -34.6656 -34.6656 -34.6655 -34.6655 -34.6654 -34.6654 -34.6654
   -34.6653 -34.6653 -34.6653 -34.6653 -34.6653 -34.6652 -34.6652 -34.6652
   -34.6652 -34.6651 -34.6651 -34.6651 -34.6651 -34.6650 -34.6650 -34.6649
   -34.6648 -34.6648 -34.6648 -34.6648 -34.6647 -34.6647 -34.6647 -34.6647
   -34.6646 -34.6646 -34.6646 -34.6645 -34.6645 -34.6644 -34.6643 -34.6643
   -34.6643 -34.6642 -34.6642 -34.6641 -34.6641 -34.6641 -34.6640 -34.6639
   -34.6638 -34.6638 -34.6637 -34.6636 -34.6636 -34.6635 -34.6635 -34.6634
   -34.6633 -34.6632 -34.6514 -34.6505 -34.6502 -34.6500 -34.6497 -34.6496
   -34.6494 -34.6494 -34.6493 -34.6492 -34.6492 -34.6491 -34.6489 -34.6488
   -34.6488 -34.6487 -34.6485 -34.6485 -34.6484 -34.6479 -34.6478 -34.6475
   -34.6472 -34.6471 -34.6469 -34.6469 -34.6468 -34.6467 -34.6467 -34.6465
   -34.6464 -34.6463 -34.6463 -34.6462 -34.6459 -34.6459 -25.4767 -25.4762
   -25.4589 -25.4586 -25.4583 -25.4583 -25.4556 -25.4552 -25.4549 -25.4549
   -25.4172 -25.4169 -25.4166 -25.4166 -25.3932 -25.3930 -25.3926 -25.3926
   -25.3895 -25.3891 -25.3783 -25.3780 -25.3601 -25.3598 -25.3534 -25.3533
   -25.3531 -25.3531 -25.3442 -25.3442 -25.3439 -25.3439 -25.3417 -25.3415
   -25.3355 -25.3353 -25.3350 -25.3350 -25.3350 -25.3350 -25.3348 -25.3348
   -25.3316 -25.3312 -25.3233 -25.3230 -25.3228 -25.3228 -25.3110 -25.3106
   -25.3009 -25.3005 -25.2903 -25.2899  -1.8283  -1.6305  -1.1092  -0.9281
    -0.8049  -0.8034  -0.6566  -0.6373  -0.6356  -0.3309  -0.3258  -0.3244
    -0.2709  -0.1934  -0.1919  -0.1709  -0.1093  -0.1085  -0.0569  -0.0156
     0.1112   0.1121   0.1383   0.1390   0.2122   0.2271   0.2284   0.2809
     0.2823   0.2921   0.2929   0.3366   0.4295   0.4302   0.4840   0.4848
     6.4384   6.7446   6.9795   7.0845   7.0851   7.2627   7.2685   7.3144
     7.3150   7.3184   7.3196   7.4286   7.4301   7.4796   7.4807   7.6319
     7.6329   7.7679   7.7688   7.8983   7.9365   7.9392   7.9396   7.9897
     8.0863   8.0864   8.1292   8.1300   8.1685   8.1700   8.4268   8.4276
     8.5135   8.5451   8.5458   8.5467   8.6703   8.7129   8.7136   8.8977
     8.8989   9.0067   9.0075   9.0222   9.0231   9.0494   9.1160   9.1173
     9.1188   9.1194   9.1844   9.3058   9.3075   9.5523   9.6729   9.6748
     9.8039   9.8053   9.8174   9.8180   9.9159   9.9366   9.9635   9.9643
     9.9667   9.9674  10.0223  10.1844  10.1864  10.1874  10.2120  10.5596
    10.5922  10.6147  10.6346  10.6734  10.6742  10.6981  10.8989  10.8997
    10.9251  10.9260  10.9532  10.9546  10.9859  11.0623  11.0665  11.0673
    11.0734  11.1045  11.1058  11.1514  11.1528  11.1990  11.2500  11.2505
    11.2647  11.2653  11.2734  11.4185  11.4737  11.5333  11.5337  11.6080
    11.6109  11.7153  11.7231  11.8930  11.9054  11.9215  11.9961  11.9968
    12.0105  12.0429  12.0437  12.0715  12.0725  12.0830  12.1485  12.1492
    12.5862  12.5864  12.7622  12.7625  12.8120  13.1175

     highest occupied level (ev):    13.1176

!    total energy              =  -11463.78551630 Ry
     estimated scf accuracy    <          6.0E-11 Ry

     The total energy is the sum of the following terms:
     one-electron contribution =   -5490.02168415 Ry
     hartree contribution      =    3013.78994103 Ry
     xc contribution           =   -2341.04528497 Ry
     ewald contribution        =   -6644.53992615 Ry
     Dispersion Correction     =      -1.96856206 Ry

     convergence has been achieved in  28 iterations

     Forces acting on atoms (cartesian axes, Ry/au):

     atom    1 type  1   force =     0.00000798   -0.00000032   -0.00003671
     atom    2 type  1   force =     0.00000025   -0.00000644    0.00000474
     atom    3 type  1   force =     0.00000406   -0.00000370    0.00000611
     atom    4 type  1   force =     0.00000498    0.00000175    0.00000173
     atom    5 type  1   force =    -0.00000515   -0.00000013    0.00000913
     atom    6 type  1   force =    -0.00000045    0.00000011   -0.00000258
     atom    7 type  1   force =     0.00000619    0.00000230    0.00000094
     atom    8 type  1   force =    -0.00000333   -0.00000001   -0.00000701
     atom    9 type  1   force =    -0.00000012    0.00000573    0.00000979
     atom   10 type  1   force =     0.00205467   -0.00102563    0.00216732
     atom   11 type  1   force =     0.00001344    0.00001703    0.00004949
     atom   12 type  1   force =    -0.00001945   -0.00017206    0.00063002
     atom   13 type  1   force =     0.00027843    0.00118818    0.00138939
     atom   14 type  1   force =     0.00004683    0.00007957    0.00009672
     atom   15 type  1   force =    -0.00001822   -0.00004147    0.00003695
     atom   16 type  1   force =    -0.00000448   -0.00001012    0.00004866
     atom   17 type  1   force =     0.00002534   -0.00000670    0.00005042
     atom   18 type  1   force =    -0.00009052   -0.00003733    0.00006666
     atom   19 type  2   force =    -0.00275524    0.00001074   -0.00469054
     atom   20 type  2   force =     0.00016686   -0.00000057   -0.00007822
     atom   21 type  2   force =     0.00023402    0.00001256   -0.00013057
     atom   22 type  2   force =     0.00004339   -0.00013732   -0.00012172
     atom   23 type  2   force =     0.00001881    0.00007116   -0.00008727
     atom   24 type  2   force =    -0.00000562   -0.00000012   -0.00000112
     atom   25 type  2   force =     0.00000850   -0.00006441   -0.00009563
     atom   26 type  2   force =    -0.00000555   -0.00000004   -0.00000155
     atom   27 type  2   force =     0.00005384    0.00011806   -0.00011351
     atom   28 type  2   force =    -0.00004645    0.00002168    0.00004127
     atom   29 type  2   force =     0.00000161   -0.00000259    0.00000135
     atom   30 type  2   force =     0.00008750    0.00005533    0.00014488
     atom   31 type  2   force =    -0.00000855   -0.00007735    0.00009335
     atom   32 type  2   force =    -0.00000375    0.00000014   -0.00000671
     atom   33 type  2   force =     0.00000360   -0.00000434   -0.00000086
     atom   34 type  2   force =     0.00000314    0.00000112    0.00000300
     atom   35 type  2   force =    -0.00000124    0.00000179   -0.00000040
     atom   36 type  2   force =    -0.00000386    0.00000444   -0.00000392
     atom   37 type  2   force =    -0.00000037    0.00000013    0.00000010
     atom   38 type  2   force =    -0.00000202    0.00000016   -0.00000029
     atom   39 type  2   force =     0.00000002   -0.00000005    0.00000001
     atom   40 type  2   force =     0.00000008   -0.00000022   -0.00000011
     atom   41 type  2   force =     0.00000119    0.00000134   -0.00000336
     atom   42 type  2   force =    -0.00000197    0.00000053   -0.00000088
     atom   43 type  2   force =    -0.00000081    0.00000091   -0.00000015
     atom   44 type  2   force =    -0.00000046   -0.00000078   -0.00000040
     atom   45 type  2   force =    -0.00000101   -0.00000163   -0.00000201
     atom   46 type  2   force =    -0.00005805   -0.00000005    0.00051934
     atom   47 type  2   force =     0.00007071    0.00006382    0.00004374
     atom   48 type  2   force =    -0.00001211    0.00001177   -0.00002201
     atom   49 type  2   force =    -0.00007894    0.00001173    0.00002021
     atom   50 type  2   force =     0.00002809    0.00002202    0.00000110
     atom   51 type  2   force =     0.00000719   -0.00000000   -0.00002563
     atom   52 type  2   force =    -0.00003737   -0.00011316    0.00005345
     atom   53 type  2   force =     0.00000715   -0.00000007   -0.00002532
     atom   54 type  2   force =    -0.00001278    0.00000251   -0.00003141

     Total force =     0.006635     Total SCF correction =     0.000045


     Computing stress (Cartesian axis) and pressure

          total   stress  (Ry/bohr**3)                   (kbar)     P=        0.20
   0.00000085  -0.00000026   0.00000084            0.12       -0.04        0.12
  -0.00000026   0.00000084  -0.00000000           -0.04        0.12       -0.00
   0.00000084  -0.00000000   0.00000235            0.12       -0.00        0.35


     Writing all to output data dir ./WSe.save/ :
     XML data file, charge density, pseudopotentials, collected wavefunctions
 
     init_run     :     10.62s CPU     12.14s WALL (       1 calls)
     electrons    :    882.76s CPU   1055.22s WALL (       1 calls)
     forces       :      7.67s CPU      8.24s WALL (       1 calls)
     force_london :      0.04s CPU      0.04s WALL (       1 calls)
     stress       :    115.76s CPU    121.09s WALL (       1 calls)
     stres_london :      0.04s CPU      0.04s WALL (       1 calls)

     Called by init_run:
     wfcinit      :      9.79s CPU     11.21s WALL (       1 calls)
     potinit      :      0.06s CPU      0.08s WALL (       1 calls)
     hinit0       :      0.35s CPU      0.39s WALL (       1 calls)

     Called by electrons:
     c_bands      :    830.80s CPU    995.53s WALL (      29 calls)
     sum_band     :     49.46s CPU     56.49s WALL (      29 calls)
     v_of_rho     :      1.65s CPU      1.83s WALL (      29 calls)
     mix_rho      :      0.69s CPU      0.75s WALL (      29 calls)
     energy_londo :      0.05s CPU      0.05s WALL (       1 calls)

     Called by c_bands:
     init_us_2    :     10.85s CPU     10.93s WALL (     183 calls)
     init_us_2:cp :     10.84s CPU     10.92s WALL (     183 calls)
     cegterg      :    794.11s CPU    946.85s WALL (      87 calls)

     Called by *egterg:
     cdiaghg      :     52.34s CPU    131.39s WALL (     508 calls)
     h_psi        :    460.29s CPU    502.22s WALL (     514 calls)
     g_psi        :      1.84s CPU      1.89s WALL (     424 calls)

     Called by h_psi:
     h_psi:calbec :    119.89s CPU    127.39s WALL (     514 calls)
     vloc_psi     :    230.25s CPU    263.71s WALL (     514 calls)
     add_vuspsi   :    105.34s CPU    105.91s WALL (     514 calls)

     General routines
     calbec       :    127.13s CPU    137.05s WALL (     529 calls)
     fft          :      1.26s CPU      1.43s WALL (     315 calls)
     ffts         :      0.07s CPU      0.10s WALL (      29 calls)
     fftw         :    246.24s CPU    282.02s WALL (  222838 calls)
 
     Parallel routines
     fft_scatt_xy :     28.83s CPU     32.29s WALL (  223182 calls)
     fft_scatt_yz :    136.91s CPU    159.89s WALL (  223182 calls)
 
     PWSCF        :  16m58.95s CPU  20m 6.29s WALL

 
   This run was terminated on:  17:44:52   5Nov2024            

=------------------------------------------------------------------------------=
   JOB DONE.
=------------------------------------------------------------------------------=
