54   
3    

1    
  0.0123263299851592   0.0000000000000000   0.0157499710824168
  -0.0048268491    0.0000156807   -0.0075479602
   0.0000505309   -0.0002239893   -0.0002058702
   0.0000488009    0.0002219807   -0.0002077602
   0.0000537909   -0.0002191293   -0.0002091802
   0.0000559309    0.0002205207   -0.0002045302
   0.0000600109   -0.0000004393    0.0000221198
   0.0000561009    0.0002240607   -0.0002084802
   0.0000599109    0.0000003307    0.0000221098
   0.0000539009   -0.0002278893   -0.0002056002
   0.0000003309    0.0000024907   -0.0000001602
  -0.0000007591    0.0000002607    0.0000058698
   0.0000006809   -0.0000021893   -0.0000004002
   0.0000045009    0.0000000707   -0.0000002902
   0.0000010909    0.0000032807    0.0000107498
   0.0000010809   -0.0000028393    0.0000107398
   0.0000034409    0.0000024807    0.0000058898
   0.0000036809   -0.0000026193    0.0000058898
  -0.0000041291    0.0000000207    0.0000107898
   0.0000062909    0.0000000807   -0.0004563502
   0.0000016709    0.0000074307   -0.0004190202
   0.0000017709    0.0000031407   -0.0004215402
  -0.0000018691   -0.0000033693   -0.0004180602
   0.0000069209   -0.0000022193   -0.0004223002
  -0.0000028391   -0.0000000993   -0.0004304702
  -0.0000047891   -0.0000026993   -0.0004168702
  -0.0000000891   -0.0000000293   -0.0004265102
   0.0000042609   -0.0000025493   -0.0004236402
   0.0019136509   -0.0009423193    0.0025618998
   0.0000120609    0.0000001307    0.0004769698
   0.0000564909   -0.0001303793    0.0010032898
   0.0002822609    0.0010660507    0.0017751998
   0.0000509009    0.0000796707    0.0005109098
  -0.0000261791   -0.0000346893    0.0004695798
   0.0000093609   -0.0000014693    0.0004644598
   0.0000091209    0.0000014907    0.0004891898
  -0.0000863691   -0.0000444393    0.0004901198
   0.0000530609    0.0001331307    0.0001538998
   0.0000108809   -0.0000002993   -0.0003725202
   0.0018347809    0.0008953807    0.0016340798
   0.0002841909   -0.0010345493    0.0009007198
  -0.0000272991    0.0000350507   -0.0003802102
   0.0000487709   -0.0000787093   -0.0003387502
   0.0000089509   -0.0000009393   -0.0003589502
   0.0000080309    0.0000014407   -0.0003861802
  -0.0000874191    0.0000440107   -0.0003594802
   0.0000061609    0.0000000407    0.0003912398
   0.0000014609   -0.0000029993    0.0004263198
   0.0000020709   -0.0000072693    0.0004288998
   0.0000073009    0.0000016207    0.0004254898
  -0.0000021591    0.0000027407    0.0004299998
  -0.0000027791   -0.0000001393    0.0004172798
   0.0000040409    0.0000027607    0.0004242298
  -0.0000002091   -0.0000000293    0.0004217698
  -0.0000045091    0.0000029407    0.0004313798

19   
  0.0123263299851592   0.0000000000000000   0.0157499710824168
   0.0000063700   -0.0000001698   -0.0000322502
   0.0000000300   -0.0000055198    0.0000040098
   0.0000029500   -0.0000036098    0.0000042598
   0.0000044900    0.0000019002    0.0000007698
  -0.0000045000   -0.0000001098    0.0000075698
  -0.0000007700   -0.0000000298   -0.0000020202
   0.0000055800    0.0000019902    0.0000006698
  -0.0000026600   -0.0000000498   -0.0000060502
  -0.0000007200    0.0000046702    0.0000076798
   0.0019779600   -0.0009782098    0.0020923298
   0.0000111100    0.0000191702    0.0000519798
  -0.0000034500   -0.0001657598    0.0006226098
   0.0002837000    0.0011346702    0.0013485898
   0.0000370800    0.0000722202    0.0000958398
  -0.0000148900   -0.0000417898    0.0000345598
  -0.0000080200   -0.0000107198    0.0000521798
   0.0000256700   -0.0000079798    0.0000520298
  -0.0000875300   -0.0000296998    0.0000649898
  -0.0026564000    0.0000106102   -0.0049643402
   0.0001569400   -0.0000014198   -0.0005018102
   0.0002224800    0.0000115002   -0.0005530202
   0.0000405100   -0.0001311898   -0.0005440202
   0.0000156400    0.0000680702   -0.0005112402
  -0.0000057900    0.0000000702   -0.0004250502
   0.0000067300   -0.0000606498   -0.0005183402
  -0.0000057600   -0.0000001498   -0.0004248502
   0.0000495700    0.0001132102   -0.0005367602
  -0.0000372800    0.0000180702    0.0004606698
   0.0000013900   -0.0000023898    0.0004232398
   0.0000723800    0.0000449102    0.0005459098
  -0.0000056700   -0.0000632298    0.0005034898
  -0.0000031100    0.0000002602    0.0004167898
   0.0000025300   -0.0000032198    0.0004217398
   0.0000027900    0.0000008902    0.0004247298
  -0.0000012100    0.0000015502    0.0004217698
  -0.0000033000    0.0000033402    0.0004193198
   0.0000001700   -0.0000000198   -0.0004229102
  -0.0000016900    0.0000000602   -0.0004223602
  -0.0000002600   -0.0000003498   -0.0004230702
   0.0000002500    0.0000003702   -0.0004230302
   0.0000012700    0.0000013302   -0.0004251402
  -0.0000020700    0.0000008302   -0.0004230202
  -0.0000006000    0.0000006902   -0.0004222902
  -0.0000003300   -0.0000007698   -0.0004224402
  -0.0000008200   -0.0000018598   -0.0004240902
  -0.0000554600   -0.0000001398    0.0009687798
   0.0000708700    0.0000625602    0.0004628198
  -0.0000098100    0.0000097302    0.0003990898
  -0.0000764800    0.0000118102    0.0004398198
   0.0000269300    0.0000219502    0.0004218798
   0.0000060700    0.0000001102    0.0003981398
  -0.0000359100   -0.0001122698    0.0004719098
   0.0000059900   -0.0000001398    0.0003977098
  -0.0000129600    0.0000049002    0.0003902298

19   
 -0.0123263299851592   0.0000000000000000  -0.0157499710824168
  -0.0000063804   -0.0000002402    0.0000321704
  -0.0000000904    0.0000052798   -0.0000042296
  -0.0000036904    0.0000032898   -0.0000045996
  -0.0000048104   -0.0000017102   -0.0000009296
   0.0000048596    0.0000003098   -0.0000078696
   0.0000002596   -0.0000000502    0.0000017704
  -0.0000056504   -0.0000021402   -0.0000007596
   0.0000027196   -0.0000000002    0.0000059504
   0.0000003196   -0.0000054302   -0.0000080496
  -0.0018922504    0.0009291098   -0.0020073796
  -0.0000108704   -0.0000189902   -0.0000512396
   0.0000077896    0.0001677698   -0.0006288596
  -0.0002830104   -0.0011059102   -0.0013268096
  -0.0000375904   -0.0000714702   -0.0000939296
   0.0000141896    0.0000417198   -0.0000352396
   0.0000073196    0.0000108398   -0.0000509096
  -0.0000252204    0.0000085698   -0.0000515096
   0.0000864496    0.0000303298   -0.0000646096
   0.0025738496    0.0000098998    0.0040133204
  -0.0001560304    0.0000005198   -0.0003484296
  -0.0002237704   -0.0000117502   -0.0002951296
  -0.0000401404    0.0001305698   -0.0003055596
  -0.0000167004   -0.0000678602   -0.0003387496
   0.0000054496   -0.0000000502   -0.0004242796
  -0.0000074004    0.0000611398   -0.0003320496
   0.0000058896    0.0000000898   -0.0004235496
  -0.0000496404   -0.0001131202   -0.0003119896
   0.0000379496   -0.0000182202    0.0003883704
  -0.0000013804    0.0000023998    0.0004249504
  -0.0000743304   -0.0000467702    0.0002993304
   0.0000064896    0.0000647598    0.0003441104
   0.0000035896    0.0000001898    0.0004311204
  -0.0000032204    0.0000036598    0.0004261604
  -0.0000027504   -0.0000005902    0.0004235804
   0.0000014296   -0.0000014202    0.0004264604
   0.0000031996   -0.0000037302    0.0004287404
   0.0000002696   -0.0000001202   -0.0004259896
   0.0000017396    0.0000000598   -0.0004258696
   0.0000000696   -0.0000001602   -0.0004257796
   0.0000002296    0.0000000698   -0.0004258596
  -0.0000007604   -0.0000008702   -0.0004230296
   0.0000013496   -0.0000005002   -0.0004250196
   0.0000005696   -0.0000004202   -0.0004261096
   0.0000008096    0.0000008098   -0.0004258096
   0.0000006496    0.0000014898   -0.0004241596
   0.0000544896   -0.0000004102   -0.0001126796
  -0.0000707104   -0.0000633002    0.0003866604
   0.0000103796   -0.0000108002    0.0004494304
   0.0000760296   -0.0000115602    0.0004095004
  -0.0000280004   -0.0000217702    0.0004265504
  -0.0000063204    0.0000000898    0.0004514404
   0.0000354096    0.0001106198    0.0003783504
  -0.0000059204    0.0000001998    0.0004507104
   0.0000128896   -0.0000044202    0.0004582904
