# Thermal properties / unit cell (natom)

unit:
  temperature:   K
  free_energy:   kJ/mol
  entropy:       J/K/mol
  heat_capacity: J/K/mol

natom: 6    
cutoff_frequency: 0.00000
num_modes: 9216000
num_integrated_modes: 9216000

zero_point_energy:      19.2073557

thermal_properties:
- temperature:         0.0000000
  free_energy:        19.2073557
  entropy:             0.0000000
  heat_capacity:       0.0000000
  energy:             19.2073557

- temperature:        10.0000000
  free_energy:        19.2066269
  entropy:             0.2965194
  heat_capacity:       0.8960147
  energy:             19.2095921

- temperature:        20.0000000
  free_energy:        19.1959603
  entropy:             2.1876428
  heat_capacity:       5.9594016
  energy:             19.2397132

- temperature:        30.0000000
  free_energy:        19.1556121
  entropy:             6.2162227
  heat_capacity:      14.9348845
  energy:             19.3420988

- temperature:        40.0000000
  free_energy:        19.0659990
  entropy:            11.9405395
  heat_capacity:      25.5521392
  energy:             19.5436206

- temperature:        50.0000000
  free_energy:        18.9128185
  entropy:            18.8658716
  heat_capacity:      37.0559892
  energy:             19.8561121

- temperature:        60.0000000
  free_energy:        18.6857618
  entropy:            26.6682604
  heat_capacity:      48.8894556
  energy:             20.2858574

- temperature:        70.0000000
  free_energy:        18.3774414
  entropy:            35.0749732
  heat_capacity:      60.3663456
  energy:             20.8326896

- temperature:        80.0000000
  free_energy:        17.9830742
  entropy:            43.8395823
  heat_capacity:      70.9694471
  energy:             21.4902407

- temperature:        90.0000000
  free_energy:        17.5001455
  entropy:            52.7571784
  heat_capacity:      80.4432184
  energy:             22.2482915

- temperature:       100.0000000
  free_energy:        16.9279448
  entropy:            61.6720390
  heat_capacity:      88.7338515
  energy:             23.0951487

- temperature:       110.0000000
  free_energy:        16.2670850
  entropy:            70.4740305
  heat_capacity:      95.9040923
  energy:             24.0192284

- temperature:       120.0000000
  free_energy:        15.5190876
  entropy:            79.0899406
  heat_capacity:     102.0697227
  energy:             25.0098804

- temperature:       130.0000000
  free_energy:        14.6860604
  entropy:            87.4742392
  heat_capacity:     107.3617790
  energy:             26.0577115

- temperature:       140.0000000
  free_energy:        13.7704621
  entropy:            95.6011883
  heat_capacity:     111.9071275
  energy:             27.1546285

- temperature:       150.0000000
  free_energy:        12.7749356
  entropy:           103.4587455
  heat_capacity:     115.8199724
  energy:             28.2937475

- temperature:       160.0000000
  free_energy:        11.7021952
  entropy:           111.0440984
  heat_capacity:     119.1992246
  energy:             29.4692510

- temperature:       170.0000000
  free_energy:        10.5549506
  entropy:           118.3604924
  heat_capacity:     122.1287365
  energy:             30.6762343

- temperature:       180.0000000
  free_energy:         9.3358585
  entropy:           125.4150197
  heat_capacity:     124.6787658
  energy:             31.9105620

- temperature:       190.0000000
  free_energy:         8.0474919
  entropy:           132.2171001
  heat_capacity:     126.9078327
  energy:             33.1687409

- temperature:       200.0000000
  free_energy:         6.6923223
  entropy:           138.7774475
  heat_capacity:     128.8645695
  energy:             34.4478118

- temperature:       210.0000000
  free_energy:         5.2727110
  entropy:           145.1073761
  heat_capacity:     130.5893934
  energy:             35.7452600

- temperature:       220.0000000
  free_energy:         3.7909047
  entropy:           151.2183398
  heat_capacity:     132.1159461
  energy:             37.0589394

- temperature:       230.0000000
  free_energy:         2.2490364
  entropy:           157.1216334
  heat_capacity:     133.4723011
  energy:             38.3870121

- temperature:       240.0000000
  free_energy:         0.6491277
  entropy:           162.8282049
  heat_capacity:     134.6819588
  energy:             39.7278969

- temperature:       250.0000000
  free_energy:        -1.0069070
  entropy:           168.3485416
  heat_capacity:     135.7646618
  energy:             41.0802284

- temperature:       260.0000000
  free_energy:        -2.7172556
  entropy:           173.6926090
  heat_capacity:     136.7370582
  energy:             42.4428227

- temperature:       270.0000000
  free_energy:        -4.4802031
  entropy:           178.8698228
  heat_capacity:     137.6132413
  energy:             43.8146491

- temperature:       280.0000000
  free_energy:        -6.2941255
  entropy:           183.8890444
  heat_capacity:     138.4051885
  energy:             45.1948069

- temperature:       290.0000000
  free_energy:        -8.1574851
  entropy:           188.7585910
  heat_capacity:     139.1231191
  energy:             46.5825063

- temperature:       300.0000000
  free_energy:       -10.0688244
  entropy:           193.4862545
  heat_capacity:     139.7757852
  energy:             47.9770519

- temperature:       310.0000000
  free_energy:       -12.0267616
  entropy:           198.0793266
  heat_capacity:     140.3707115
  energy:             49.3778297

- temperature:       320.0000000
  free_energy:       -14.0299851
  entropy:           202.5446266
  heat_capacity:     140.9143906
  energy:             50.7842954

- temperature:       330.0000000
  free_energy:       -16.0772495
  entropy:           206.8885302
  heat_capacity:     141.4124447
  energy:             52.1959655

- temperature:       340.0000000
  free_energy:       -18.1673710
  entropy:           211.1169987
  heat_capacity:     141.8697593
  energy:             53.6124086

- temperature:       350.0000000
  free_energy:       -20.2992233
  entropy:           215.2356070
  heat_capacity:     142.2905937
  energy:             55.0332391

- temperature:       360.0000000
  free_energy:       -22.4717343
  entropy:           219.2495713
  heat_capacity:     142.6786732
  energy:             56.4581113

- temperature:       370.0000000
  free_energy:       -24.6838823
  entropy:           223.1637745
  heat_capacity:     143.0372663
  energy:             57.8867143

- temperature:       380.0000000
  free_energy:       -26.9346926
  entropy:           226.9827909
  heat_capacity:     143.3692493
  energy:             59.3187680

- temperature:       390.0000000
  free_energy:       -29.2232351
  entropy:           230.7109082
  heat_capacity:     143.6771605
  energy:             60.7540191

- temperature:       400.0000000
  free_energy:       -31.5486212
  entropy:           234.3521491
  heat_capacity:     143.9632463
  energy:             62.1922385

- temperature:       410.0000000
  free_energy:       -33.9100011
  entropy:           237.9102904
  heat_capacity:     144.2294999
  energy:             63.6332179

- temperature:       420.0000000
  free_energy:       -36.3065618
  entropy:           241.3888813
  heat_capacity:     144.4776946
  energy:             65.0767683

- temperature:       430.0000000
  free_energy:       -38.7375247
  entropy:           244.7912597
  heat_capacity:     144.7094118
  energy:             66.5227169

- temperature:       440.0000000
  free_energy:       -41.2021435
  entropy:           248.1205677
  heat_capacity:     144.9260651
  energy:             67.9709063

- temperature:       450.0000000
  free_energy:       -43.6997024
  entropy:           251.3797659
  heat_capacity:     145.1289213
  energy:             69.4211923

- temperature:       460.0000000
  free_energy:       -46.2295144
  entropy:           254.5716456
  heat_capacity:     145.3191178
  energy:             70.8734426

- temperature:       470.0000000
  free_energy:       -48.7909197
  entropy:           257.6988416
  heat_capacity:     145.4976781
  energy:             72.3275358

- temperature:       480.0000000
  free_energy:       -51.3832840
  entropy:           260.7638425
  heat_capacity:     145.6655252
  energy:             73.7833604

- temperature:       490.0000000
  free_energy:       -54.0059971
  entropy:           263.7690011
  heat_capacity:     145.8234931
  energy:             75.2408134

- temperature:       500.0000000
  free_energy:       -56.6584719
  entropy:           266.7165436
  heat_capacity:     145.9723368
  energy:             76.6997999

- temperature:       510.0000000
  free_energy:       -59.3401430
  entropy:           269.6085784
  heat_capacity:     146.1127409
  energy:             78.1602320

- temperature:       520.0000000
  free_energy:       -62.0504652
  entropy:           272.4471035
  heat_capacity:     146.2453275
  energy:             79.6220286

- temperature:       530.0000000
  free_energy:       -64.7889130
  entropy:           275.2340140
  heat_capacity:     146.3706629
  energy:             81.0851144

- temperature:       540.0000000
  free_energy:       -67.5549794
  entropy:           277.9711090
  heat_capacity:     146.4892631
  energy:             82.5494195

- temperature:       550.0000000
  free_energy:       -70.3481748
  entropy:           280.6600975
  heat_capacity:     146.6015994
  energy:             84.0148788

- temperature:       560.0000000
  free_energy:       -73.1680264
  entropy:           283.3026043
  heat_capacity:     146.7081029
  energy:             85.4814320

- temperature:       570.0000000
  free_energy:       -76.0140771
  entropy:           285.9001752
  heat_capacity:     146.8091684
  energy:             86.9490227

- temperature:       580.0000000
  free_energy:       -78.8858850
  entropy:           288.4542819
  heat_capacity:     146.9051579
  energy:             88.4175985

- temperature:       590.0000000
  free_energy:       -81.7830226
  entropy:           290.9663265
  heat_capacity:     146.9964042
  energy:             89.8871101

- temperature:       600.0000000
  free_energy:       -84.7050758
  entropy:           293.4376460
  heat_capacity:     147.0832130
  energy:             91.3575118

- temperature:       610.0000000
  free_energy:       -87.6516440
  entropy:           295.8695156
  heat_capacity:     147.1658663
  energy:             92.8287605

- temperature:       620.0000000
  free_energy:       -90.6223387
  entropy:           298.2631529
  heat_capacity:     147.2446239
  energy:             94.3008161

- temperature:       630.0000000
  free_energy:       -93.6167835
  entropy:           300.6197211
  heat_capacity:     147.3197257
  energy:             95.7736408

- temperature:       640.0000000
  free_energy:       -96.6346133
  entropy:           302.9403319
  heat_capacity:     147.3913937
  energy:             97.2471992

- temperature:       650.0000000
  free_energy:       -99.6754738
  entropy:           305.2260488
  heat_capacity:     147.4598332
  energy:             98.7214579

- temperature:       660.0000000
  free_energy:      -102.7390213
  entropy:           307.4778895
  heat_capacity:     147.5252344
  energy:            100.1963857

- temperature:       670.0000000
  free_energy:      -105.8249219
  entropy:           309.6968284
  heat_capacity:     147.5877738
  energy:            101.6719531

- temperature:       680.0000000
  free_energy:      -108.9328513
  entropy:           311.8837993
  heat_capacity:     147.6476155
  energy:            103.1481322

- temperature:       690.0000000
  free_energy:      -112.0624944
  entropy:           314.0396975
  heat_capacity:     147.7049118
  energy:            104.6248969

- temperature:       700.0000000
  free_energy:      -115.2135446
  entropy:           316.1653814
  heat_capacity:     147.7598045
  energy:            106.1022224

- temperature:       710.0000000
  free_energy:      -118.3857040
  entropy:           318.2616753
  heat_capacity:     147.8124257
  energy:            107.5800854

- temperature:       720.0000000
  free_energy:      -121.5786828
  entropy:           320.3293702
  heat_capacity:     147.8628988
  energy:            109.0584638

- temperature:       730.0000000
  free_energy:      -124.7921986
  entropy:           322.3692264
  heat_capacity:     147.9113386
  energy:            110.5373366

- temperature:       740.0000000
  free_energy:      -128.0259769
  entropy:           324.3819744
  heat_capacity:     147.9578525
  energy:            112.0166841

- temperature:       750.0000000
  free_energy:      -131.2797501
  entropy:           326.3683169
  heat_capacity:     148.0025411
  energy:            113.4964876

- temperature:       760.0000000
  free_energy:      -134.5532575
  entropy:           328.3289298
  heat_capacity:     148.0454982
  energy:            114.9767292

- temperature:       770.0000000
  free_energy:      -137.8462451
  entropy:           330.2644639
  heat_capacity:     148.0868120
  energy:            116.4573921

- temperature:       780.0000000
  free_energy:      -141.1584653
  entropy:           332.1755455
  heat_capacity:     148.1265650
  energy:            117.9384602

- temperature:       790.0000000
  free_energy:      -144.4896765
  entropy:           334.0627784
  heat_capacity:     148.1648346
  energy:            119.4199184

- temperature:       800.0000000
  free_energy:      -147.8396433
  entropy:           335.9267444
  heat_capacity:     148.2016935
  energy:            120.9017522

- temperature:       810.0000000
  free_energy:      -151.2081357
  entropy:           337.7680044
  heat_capacity:     148.2372100
  energy:            122.3839478

- temperature:       820.0000000
  free_energy:      -154.5949295
  entropy:           339.5870996
  heat_capacity:     148.2714483
  energy:            123.8664921

- temperature:       830.0000000
  free_energy:      -157.9998056
  entropy:           341.3845522
  heat_capacity:     148.3044690
  energy:            125.3493727

- temperature:       840.0000000
  free_energy:      -161.4225501
  entropy:           343.1608664
  heat_capacity:     148.3363288
  energy:            126.8325776

- temperature:       850.0000000
  free_energy:      -164.8629541
  entropy:           344.9165290
  heat_capacity:     148.3670816
  energy:            128.3160956

- temperature:       860.0000000
  free_energy:      -168.3208134
  entropy:           346.6520106
  heat_capacity:     148.3967778
  energy:            129.7999158

- temperature:       870.0000000
  free_energy:      -171.7959285
  entropy:           348.3677659
  heat_capacity:     148.4254652
  energy:            131.2840278

- temperature:       880.0000000
  free_energy:      -175.2881044
  entropy:           350.0642344
  heat_capacity:     148.4531889
  energy:            132.7684219

- temperature:       890.0000000
  free_energy:      -178.7971504
  entropy:           351.7418414
  heat_capacity:     148.4799914
  energy:            134.2530885

- temperature:       900.0000000
  free_energy:      -182.3228798
  entropy:           353.4009983
  heat_capacity:     148.5059132
  energy:            135.7380187

- temperature:       910.0000000
  free_energy:      -185.8651101
  entropy:           355.0421034
  heat_capacity:     148.5309921
  energy:            137.2232040

- temperature:       920.0000000
  free_energy:      -189.4236629
  entropy:           356.6655422
  heat_capacity:     148.5552644
  energy:            138.7086359

- temperature:       930.0000000
  free_energy:      -192.9983634
  entropy:           358.2716882
  heat_capacity:     148.5787641
  energy:            140.1943067

- temperature:       940.0000000
  free_energy:      -196.5890403
  entropy:           359.8609032
  heat_capacity:     148.6015237
  energy:            141.6802087

- temperature:       950.0000000
  free_energy:      -200.1955261
  entropy:           361.4335378
  heat_capacity:     148.6235739
  energy:            143.1663348

- temperature:       960.0000000
  free_energy:      -203.8176569
  entropy:           362.9899321
  heat_capacity:     148.6449437
  energy:            144.6526779

- temperature:       970.0000000
  free_energy:      -207.4552718
  entropy:           364.5304157
  heat_capacity:     148.6656609
  energy:            146.1392315

- temperature:       980.0000000
  free_energy:      -211.1082132
  entropy:           366.0553085
  heat_capacity:     148.6857516
  energy:            147.6259891

- temperature:       990.0000000
  free_energy:      -214.7763270
  entropy:           367.5649207
  heat_capacity:     148.7052409
  energy:            149.1129445

- temperature:      1000.0000000
  free_energy:      -218.4594617
  entropy:           369.0595537
  heat_capacity:     148.7241525
  energy:            150.6000919
