
     Program PWSCF v.7.3 starts on  5Nov2024 at 17: 8:46 

     This program is part of the open-source Quantum ESPRESSO suite
     for quantum simulation of materials; please cite
         "P. Giannozzi et al., J. Phys.:Condens. Matter 21 395502 (2009);
         "P. Giannozzi et al., J. Phys.:Condens. Matter 29 465901 (2017);
         "P. Giannozzi et al., J. Chem. Phys. 152 154105 (2020);
          URL http://www.quantum-espresso.org", 
     in publications or presentations arising from this work. More details at
     http://www.quantum-espresso.org/quote

     Parallel version (MPI & OpenMP), running on     256 processor cores
     Number of MPI processes:               256
     Threads/MPI process:                     1

     MPI processes distributed on     1 nodes
     492831 MiB available memory on the printing compute node when the environment starts
 
     Waiting for input...
     Reading input from standard input

     Current dimensions of program PWSCF are:
     Max number of different atomic species (ntypx) = 10
     Max number of k-points (npk) =  40000
     Max angular momentum in pseudopotentials (lmaxx) =  4

     File ./WSe.fire deleted, as requested
 
     K-points division:     npool     =       4
     R & G space division:  proc/nbgrp/npool/nimage =      64
     Subspace diagonalization in iterative solution of the eigenvalue problem:
     one sub-group per band group will be used
     scalapack distributed-memory algorithm (size of sub-group:  4*  4 procs)

 
     Parallelization info
     --------------------
     sticks:   dense  smooth     PW     G-vecs:    dense   smooth      PW
     Min         125     125     32                11593    11593    1534
     Max         126     126     33                11602    11602    1543
     Sum        8017    8017   2077               742111   742111   98351
 
     Using Pencil Decomposition
 


     bravais-lattice index     =            0
     lattice parameter (alat)  =      19.0724  a.u.
     unit-cell volume          =    7676.9593 (a.u.)^3
     number of atoms/cell      =           54
     number of atomic types    =            2
     number of electrons       =       828.00
     number of Kohn-Sham states=          414
     kinetic-energy cutoff     =      80.0000  Ry
     charge density cutoff     =     320.0000  Ry
     scf convergence threshold =      1.0E-10
     mixing beta               =       0.5000
     number of iterations used =            8  plain     mixing
     Exchange-correlation= PBE
                           (   1   4   3   4   0   0   0)

     celldm(1)=  19.072350  celldm(2)=   0.000000  celldm(3)=   0.000000
     celldm(4)=   0.000000  celldm(5)=   0.000000  celldm(6)=   0.000000

     crystal axes: (cart. coord. in units of alat)
               a(1) = (   1.000000   0.000000   0.000000 )  
               a(2) = (  -0.500000   0.866025   0.000000 )  
               a(3) = (   0.000000   0.000000   1.277750 )  

     reciprocal axes: (cart. coord. in units 2 pi/alat)
               b(1) = (  1.000000  0.577350  0.000000 )  
               b(2) = (  0.000000  1.154701  0.000000 )  
               b(3) = (  0.000000  0.000000  0.782626 )  


     PseudoPot. # 1 for W  read from file:
     /users/rkarkee/pbe_pseudo/W.upf
     MD5 check sum: cb94e439a9e4ea809831d6e90c63864e
     Pseudo is Norm-conserving + core correction, Zval = 14.0
     Generated using ONCVPSP code by D. R. Hamann
     Using radial grid of 1396 points,  8 beta functions with: 
                l(1) =   0
                l(2) =   0
                l(3) =   1
                l(4) =   1
                l(5) =   2
                l(6) =   2
                l(7) =   3
                l(8) =   3

     PseudoPot. # 2 for Se read from file:
     /users/rkarkee/pbe_pseudo/Se.upf
     MD5 check sum: 3cc46b3642295b3f4fdae63b742ce36d
     Pseudo is Norm-conserving + core correction, Zval = 16.0
     Generated using ONCVPSP code by D. R. Hamann
     Using radial grid of 1214 points,  6 beta functions with: 
                l(1) =   0
                l(2) =   0
                l(3) =   1
                l(4) =   1
                l(5) =   2
                l(6) =   2

     atomic species   valence    mass     pseudopotential
     W                14.00   183.84000     W ( 1.00)
     Se               16.00    78.96000     Se( 1.00)

     No symmetry found



   Cartesian axes

     site n.     atom                  positions (alat units)
         1        W      tau(   1) = (   0.0006463   0.1924501   0.9591385  )
         2        W      tau(   2) = (   0.3333333   0.1924501   0.9583127  )
         3        W      tau(   3) = (   0.6666667   0.1924501   0.9583127  )
         4        W      tau(   4) = (  -0.1666667   0.4811252   0.9583127  )
         5        W      tau(   5) = (   0.1666667   0.4811252   0.9583127  )
         6        W      tau(   6) = (   0.5000000   0.4811252   0.9583127  )
         7        W      tau(   7) = (  -0.3333333   0.7698004   0.9583127  )
         8        W      tau(   8) = (   0.0000000   0.7698004   0.9583127  )
         9        W      tau(   9) = (   0.3333333   0.7698004   0.9583127  )
        10        W      tau(  10) = (   0.1666667   0.0962250   0.3194376  )
        11        W      tau(  11) = (   0.5000000   0.0962250   0.3194376  )
        12        W      tau(  12) = (   0.8333333   0.0962250   0.3194376  )
        13        W      tau(  13) = (  -0.0000000   0.3849002   0.3194376  )
        14        W      tau(  14) = (   0.3333333   0.3849002   0.3194376  )
        15        W      tau(  15) = (   0.6666667   0.3849002   0.3194376  )
        16        W      tau(  16) = (  -0.1666667   0.6735753   0.3194376  )
        17        W      tau(  17) = (   0.1666667   0.6735753   0.3194376  )
        18        W      tau(  18) = (   0.5000000   0.6735753   0.3194376  )
        19        Se     tau(  19) = (  -0.0000000   0.1924501   0.1553611  )
        20        Se     tau(  20) = (   0.3333333   0.1924501   0.1553611  )
        21        Se     tau(  21) = (   0.6666667   0.1924501   0.1553611  )
        22        Se     tau(  22) = (  -0.1666667   0.4811252   0.1553611  )
        23        Se     tau(  23) = (   0.1666667   0.4811252   0.1553611  )
        24        Se     tau(  24) = (   0.5000000   0.4811252   0.1553611  )
        25        Se     tau(  25) = (  -0.3333333   0.7698004   0.1553611  )
        26        Se     tau(  26) = (   0.0000000   0.7698004   0.1553611  )
        27        Se     tau(  27) = (   0.3333333   0.7698004   0.1553611  )
        28        Se     tau(  28) = (   0.1666667   0.0962250   1.1223892  )
        29        Se     tau(  29) = (   0.5000000   0.0962250   1.1223892  )
        30        Se     tau(  30) = (   0.8333333   0.0962250   1.1223892  )
        31        Se     tau(  31) = (  -0.0000000   0.3849002   1.1223892  )
        32        Se     tau(  32) = (   0.3333333   0.3849002   1.1223892  )
        33        Se     tau(  33) = (   0.6666667   0.3849002   1.1223892  )
        34        Se     tau(  34) = (  -0.1666667   0.6735753   1.1223892  )
        35        Se     tau(  35) = (   0.1666667   0.6735753   1.1223892  )
        36        Se     tau(  36) = (   0.5000000   0.6735753   1.1223892  )
        37        Se     tau(  37) = (   0.1666667   0.0962250   0.7942362  )
        38        Se     tau(  38) = (   0.5000000   0.0962250   0.7942362  )
        39        Se     tau(  39) = (   0.8333333   0.0962250   0.7942362  )
        40        Se     tau(  40) = (  -0.0000000   0.3849002   0.7942362  )
        41        Se     tau(  41) = (   0.3333333   0.3849002   0.7942362  )
        42        Se     tau(  42) = (   0.6666667   0.3849002   0.7942362  )
        43        Se     tau(  43) = (  -0.1666667   0.6735753   0.7942362  )
        44        Se     tau(  44) = (   0.1666667   0.6735753   0.7942362  )
        45        Se     tau(  45) = (   0.5000000   0.6735753   0.7942362  )
        46        Se     tau(  46) = (  -0.0000000   0.1924501   0.4835141  )
        47        Se     tau(  47) = (   0.3333333   0.1924501   0.4835141  )
        48        Se     tau(  48) = (   0.6666667   0.1924501   0.4835141  )
        49        Se     tau(  49) = (  -0.1666667   0.4811252   0.4835141  )
        50        Se     tau(  50) = (   0.1666667   0.4811252   0.4835141  )
        51        Se     tau(  51) = (   0.5000000   0.4811252   0.4835141  )
        52        Se     tau(  52) = (  -0.3333333   0.7698004   0.4835141  )
        53        Se     tau(  53) = (   0.0000000   0.7698004   0.4835141  )
        54        Se     tau(  54) = (   0.3333333   0.7698004   0.4835141  )

     -------------------------------------------------
     Parameters for Dispersion (Grimme-D2) Correction:
     -------------------------------------------------
       atom      VdW radius       C_6     

        W          3.349       2818.308
        Se         3.347        438.498

     number of k points=    12
                       cart. coord. in units 2pi/alat
        k(    1) = (   0.2500000   0.4330127   0.1956564), wk =   0.1666667
        k(    2) = (   0.2500000  -0.1443376   0.1956564), wk =   0.1666667
        k(    3) = (  -0.2500000  -0.4330127   0.1956564), wk =   0.1666667
        k(    4) = (  -0.2500000   0.4330127  -0.1956564), wk =   0.1666667
        k(    5) = (   0.2500000  -0.4330127  -0.1956564), wk =   0.1666667
        k(    6) = (   0.5000000  -0.0000000   0.1956564), wk =   0.1666667
        k(    7) = (  -0.5000000   0.0000000   0.1956564), wk =   0.1666667
        k(    8) = (  -0.2500000   0.1443376   0.1956564), wk =   0.1666667
        k(    9) = (  -0.2500000  -0.1443376  -0.1956564), wk =   0.1666667
        k(   10) = (   0.2500000   0.1443376  -0.1956564), wk =   0.1666667
        k(   11) = (   0.0000000  -0.2886751   0.1956564), wk =   0.1666667
        k(   12) = (   0.0000000   0.2886751   0.1956564), wk =   0.1666667

     Dense  grid:   742111 G-vectors     FFT dimensions: ( 120, 120, 144)

     Estimated max dynamical RAM per process >     125.02 MB

     Estimated total dynamical RAM >      30.72 GB

     Initial potential from superposition of free atoms

     starting charge     827.9882, renormalised to     828.0000
     Starting wfcs are  504 randomized atomic wfcs

     total cpu time spent up to now is       14.2 secs

     Self-consistent Calculation

     iteration #  1     ecut=    80.00 Ry     beta= 0.50
     Davidson diagonalization with overlap
     ethr =  1.00E-02,  avg # of iterations =  2.0

     Threshold (ethr) on eigenvalues was too large:
     Diagonalizing with lowered threshold

     Davidson diagonalization with overlap
     ethr =  8.62E-05,  avg # of iterations =  5.5

     total cpu time spent up to now is       94.2 secs

     total energy              =  -11463.61855096 Ry
     estimated scf accuracy    <       1.08380118 Ry

     iteration #  2     ecut=    80.00 Ry     beta= 0.50
     Davidson diagonalization with overlap
     ethr =  1.31E-04,  avg # of iterations =  2.0

     total cpu time spent up to now is      125.4 secs

     total energy              =  -11463.73462298 Ry
     estimated scf accuracy    <       0.15551393 Ry

     iteration #  3     ecut=    80.00 Ry     beta= 0.50
     Davidson diagonalization with overlap
     ethr =  1.88E-05,  avg # of iterations =  6.2

     total cpu time spent up to now is      171.3 secs

     total energy              =  -11463.74889431 Ry
     estimated scf accuracy    <       0.14760587 Ry

     iteration #  4     ecut=    80.00 Ry     beta= 0.50
     Davidson diagonalization with overlap
     ethr =  1.78E-05,  avg # of iterations =  5.6

     total cpu time spent up to now is      206.9 secs

     total energy              =  -11463.77262870 Ry
     estimated scf accuracy    <       0.00573798 Ry

     iteration #  5     ecut=    80.00 Ry     beta= 0.50
     Davidson diagonalization with overlap
     ethr =  6.93E-07,  avg # of iterations =  9.0

     total cpu time spent up to now is      257.8 secs

     total energy              =  -11463.77460544 Ry
     estimated scf accuracy    <       0.01269150 Ry

     iteration #  6     ecut=    80.00 Ry     beta= 0.50
     Davidson diagonalization with overlap
     ethr =  6.93E-07,  avg # of iterations =  4.3

     total cpu time spent up to now is      290.6 secs

     total energy              =  -11463.77255414 Ry
     estimated scf accuracy    <       0.00510716 Ry

     iteration #  7     ecut=    80.00 Ry     beta= 0.50
     Davidson diagonalization with overlap
     ethr =  6.17E-07,  avg # of iterations =  8.0

     total cpu time spent up to now is      339.2 secs

     total energy              =  -11463.77462688 Ry
     estimated scf accuracy    <       0.01035137 Ry

     iteration #  8     ecut=    80.00 Ry     beta= 0.50
     Davidson diagonalization with overlap
     ethr =  6.17E-07,  avg # of iterations =  4.2

     total cpu time spent up to now is      371.2 secs

     total energy              =  -11463.77399241 Ry
     estimated scf accuracy    <       0.00378535 Ry

     iteration #  9     ecut=    80.00 Ry     beta= 0.50
     Davidson diagonalization with overlap
     ethr =  4.57E-07,  avg # of iterations =  5.9

     total cpu time spent up to now is      410.0 secs

     total energy              =  -11463.77477520 Ry
     estimated scf accuracy    <       0.00012144 Ry

     iteration # 10     ecut=    80.00 Ry     beta= 0.50
     Davidson diagonalization with overlap
     ethr =  1.47E-08,  avg # of iterations =  6.0

     total cpu time spent up to now is      451.2 secs

     total energy              =  -11463.77479653 Ry
     estimated scf accuracy    <       0.00003066 Ry

     iteration # 11     ecut=    80.00 Ry     beta= 0.50
     Davidson diagonalization with overlap
     ethr =  3.70E-09,  avg # of iterations =  6.0

     total cpu time spent up to now is      497.1 secs

     total energy              =  -11463.77480561 Ry
     estimated scf accuracy    <       0.00004028 Ry

     iteration # 12     ecut=    80.00 Ry     beta= 0.50
     Davidson diagonalization with overlap
     ethr =  3.70E-09,  avg # of iterations =  3.0

     total cpu time spent up to now is      527.9 secs

     total energy              =  -11463.77480381 Ry
     estimated scf accuracy    <       0.00001062 Ry

     iteration # 13     ecut=    80.00 Ry     beta= 0.50
     Davidson diagonalization with overlap
     ethr =  1.28E-09,  avg # of iterations =  6.0

     total cpu time spent up to now is      573.5 secs

     total energy              =  -11463.77480749 Ry
     estimated scf accuracy    <       0.00000817 Ry

     iteration # 14     ecut=    80.00 Ry     beta= 0.50
     Davidson diagonalization with overlap
     ethr =  9.86E-10,  avg # of iterations =  2.0

     total cpu time spent up to now is      601.7 secs

     total energy              =  -11463.77480701 Ry
     estimated scf accuracy    <       0.00000302 Ry

     iteration # 15     ecut=    80.00 Ry     beta= 0.50
     Davidson diagonalization with overlap
     ethr =  3.65E-10,  avg # of iterations =  6.0

     total cpu time spent up to now is      642.8 secs

     total energy              =  -11463.77480775 Ry
     estimated scf accuracy    <       0.00000044 Ry

     iteration # 16     ecut=    80.00 Ry     beta= 0.50
     Davidson diagonalization with overlap
     ethr =  5.25E-11,  avg # of iterations =  2.7

     total cpu time spent up to now is      672.7 secs

     total energy              =  -11463.77480770 Ry
     estimated scf accuracy    <       0.00000037 Ry

     iteration # 17     ecut=    80.00 Ry     beta= 0.50
     Davidson diagonalization with overlap
     ethr =  4.51E-11,  avg # of iterations =  4.2

     total cpu time spent up to now is      703.4 secs

     total energy              =  -11463.77480772 Ry
     estimated scf accuracy    <       0.00000012 Ry

     iteration # 18     ecut=    80.00 Ry     beta= 0.50
     Davidson diagonalization with overlap
     ethr =  1.50E-11,  avg # of iterations =  6.0

     total cpu time spent up to now is      735.7 secs

     total energy              =  -11463.77480772 Ry
     estimated scf accuracy    <       0.00000005 Ry

     iteration # 19     ecut=    80.00 Ry     beta= 0.50
     Davidson diagonalization with overlap
     ethr =  5.98E-12,  avg # of iterations =  6.0

     total cpu time spent up to now is      775.1 secs

     total energy              =  -11463.77480772 Ry
     estimated scf accuracy    <          2.1E-09 Ry

     iteration # 20     ecut=    80.00 Ry     beta= 0.50
     Davidson diagonalization with overlap
     ethr =  2.52E-13,  avg # of iterations =  6.6

     total cpu time spent up to now is      820.0 secs

     total energy              =  -11463.77480773 Ry
     estimated scf accuracy    <          1.7E-09 Ry

     iteration # 21     ecut=    80.00 Ry     beta= 0.50
     Davidson diagonalization with overlap
     ethr =  2.00E-13,  avg # of iterations =  7.0

     total cpu time spent up to now is      860.2 secs

     total energy              =  -11463.77480773 Ry
     estimated scf accuracy    <          2.2E-09 Ry

     iteration # 22     ecut=    80.00 Ry     beta= 0.50
     Davidson diagonalization with overlap
     ethr =  2.00E-13,  avg # of iterations =  6.4

     total cpu time spent up to now is      892.8 secs

     total energy              =  -11463.77480773 Ry
     estimated scf accuracy    <          5.0E-10 Ry

     iteration # 23     ecut=    80.00 Ry     beta= 0.50
     Davidson diagonalization with overlap
     ethr =  1.00E-13,  avg # of iterations =  6.0

     total cpu time spent up to now is      924.6 secs

     End of self-consistent calculation

          k = 0.2500 0.4330 0.1957 ( 92753 PWs)   bands (ev):

   -61.7358 -61.7358 -61.7344 -61.7343 -61.7342 -61.7341 -61.7314 -61.7311
   -61.7311 -61.7310 -61.7302 -61.7301 -61.7300 -61.7300 -61.7300 -61.7297
   -61.7296 -61.7294 -35.2223 -35.2221 -35.2203 -35.2202 -35.2197 -35.2196
   -35.2195 -35.2193 -35.2193 -35.2193 -35.2192 -35.2191 -35.2191 -35.2191
   -35.2191 -35.2190 -35.2190 -35.2190 -35.2189 -35.2189 -35.2189 -35.2189
   -35.2188 -35.2187 -35.2187 -35.2186 -35.2186 -35.2185 -35.2185 -35.2184
   -35.2184 -35.2184 -35.2182 -35.2182 -35.2182 -35.2181 -35.2181 -35.2180
   -35.2180 -35.2180 -35.2179 -35.2178 -35.2178 -35.2176 -35.2176 -35.2175
   -35.2172 -35.2170 -35.2169 -35.2168 -35.2168 -35.2168 -35.2166 -35.2166
   -35.2165 -35.2165 -35.2165 -35.2164 -35.2163 -35.2162 -35.2161 -35.2161
   -35.2160 -35.2160 -35.2158 -35.2158 -35.2157 -35.2156 -35.2154 -35.2152
   -35.2136 -35.2134 -35.1842 -35.1838 -35.1822 -35.1816 -35.1813 -35.1813
   -35.1812 -35.1811 -35.1811 -35.1811 -35.1809 -35.1809 -35.1808 -35.1808
   -35.1808 -35.1808 -35.1807 -35.1806 -35.1806 -35.1806 -35.1806 -35.1806
   -35.1804 -35.1804 -35.1803 -35.1803 -35.1803 -35.1802 -35.1802 -35.1802
   -35.1802 -35.1801 -35.1801 -35.1801 -35.1800 -35.1800 -35.1800 -35.1799
   -35.1799 -35.1799 -35.1798 -35.1798 -35.1797 -35.1797 -35.1796 -35.1796
   -35.1795 -35.1795 -35.1795 -35.1793 -35.1793 -35.1792 -35.1792 -35.1792
   -35.1791 -35.1791 -35.1791 -35.1791 -35.1790 -35.1790 -35.1789 -35.1788
   -35.1788 -35.1788 -35.1787 -35.1787 -35.1786 -35.1784 -35.1783 -35.1777
   -35.1762 -35.1758 -35.1667 -35.1648 -35.1646 -35.1645 -35.1643 -35.1643
   -35.1643 -35.1639 -35.1638 -35.1637 -35.1636 -35.1636 -35.1634 -35.1634
   -35.1634 -35.1633 -35.1632 -35.1627 -35.1624 -35.1622 -35.1620 -35.1618
   -35.1618 -35.1615 -35.1612 -35.1611 -35.1610 -35.1609 -35.1608 -35.1608
   -35.1608 -35.1607 -35.1607 -35.1605 -35.1603 -35.1584 -26.0360 -26.0359
   -26.0358 -26.0356 -26.0278 -26.0277 -26.0091 -26.0090 -25.9979 -25.9977
   -25.9977 -25.9975 -25.9374 -25.9373 -25.9337 -25.9334 -25.9334 -25.9331
   -25.9314 -25.9314 -25.9205 -25.9205 -25.9134 -25.9132 -25.9132 -25.9131
   -25.9125 -25.9124 -25.9124 -25.9123 -25.9103 -25.9101 -25.9101 -25.9098
   -25.8963 -25.8960 -25.8960 -25.8958 -25.8953 -25.8952 -25.8903 -25.8901
   -25.8901 -25.8900 -25.8900 -25.8897 -25.8879 -25.8878 -25.8804 -25.8802
   -25.8802 -25.8800 -25.8693 -25.8693  -2.0526  -1.8873  -1.7088  -1.7079
    -1.5507  -1.5497  -0.9640  -0.8949  -0.8938  -0.7853  -0.7845  -0.7742
    -0.7731  -0.7007  -0.5521  -0.5512  -0.5361  -0.5069  -0.5060  -0.4495
    -0.4303  -0.4294  -0.3723  -0.3671  -0.3662  -0.3152  -0.2203  -0.2194
    -0.1836  -0.1816  -0.1803  -0.1070  -0.1022  -0.1010  -0.0865  -0.0498
     6.2468   6.2474   6.3000   6.4447   6.4454   6.4704   6.6463   6.7138
     6.7151   6.9357   6.9930   7.0356   7.0364   7.0405   7.1889   7.1894
     7.3121   7.3512   7.3991   7.3998   7.4096   7.4110   7.4559   7.4566
     7.5097   7.6266   7.7960   7.7969   7.9151   7.9162   8.0744   8.0751
     8.1348   8.1528   8.1539   8.2125   8.3341   8.3493   8.3501   8.3650
     8.3656   8.4254   8.4262   8.5149   8.5469   8.5476   8.8862   8.9569
     8.9588   8.9819   8.9832   9.1031   9.1181   9.1273   9.1487   9.2489
     9.2714   9.2726   9.3070   9.3218   9.3227   9.3302   9.3685   9.3693
     9.4046   9.4365   9.4384   9.5759   9.7959   9.8513   9.8534   9.8955
     9.8964   9.9923   9.9932   9.9936   9.9959  10.1032  10.1711  10.1913
    10.2377  10.2900  10.2915  10.3988  10.4007  10.4312  10.4354  10.4372
    10.4454  10.4460  10.4662  10.5051  10.5069  10.5829  10.5834  10.6705
    10.7009  10.7014  10.7833  10.7836  10.8788  10.8792  11.0080  11.0084
    11.0824  11.3942  11.3948  11.5005  11.6476  11.6487  11.6581  11.6588
    11.6733  11.6738  11.7595  11.7606  11.7750  11.7754  11.8116  11.8123
    11.8238  11.8921  11.9020  12.0713  12.1241  12.2685

          k = 0.2500-0.1443 0.1957 ( 92754 PWs)   bands (ev):

   -61.7367 -61.7367 -61.7336 -61.7336 -61.7325 -61.7325 -61.7324 -61.7324
   -61.7310 -61.7309 -61.7309 -61.7309 -61.7305 -61.7304 -61.7293 -61.7293
   -61.7293 -61.7292 -35.2223 -35.2222 -35.2204 -35.2202 -35.2199 -35.2196
   -35.2196 -35.2195 -35.2193 -35.2193 -35.2193 -35.2192 -35.2192 -35.2192
   -35.2192 -35.2191 -35.2191 -35.2190 -35.2189 -35.2189 -35.2189 -35.2189
   -35.2188 -35.2188 -35.2188 -35.2187 -35.2186 -35.2186 -35.2186 -35.2186
   -35.2185 -35.2183 -35.2183 -35.2183 -35.2181 -35.2180 -35.2177 -35.2177
   -35.2176 -35.2176 -35.2176 -35.2174 -35.2173 -35.2172 -35.2172 -35.2172
   -35.2172 -35.2170 -35.2169 -35.2168 -35.2168 -35.2168 -35.2166 -35.2166
   -35.2166 -35.2165 -35.2165 -35.2165 -35.2165 -35.2164 -35.2164 -35.2162
   -35.2161 -35.2161 -35.2161 -35.2159 -35.2158 -35.2155 -35.2155 -35.2152
   -35.2136 -35.2135 -35.1842 -35.1838 -35.1822 -35.1817 -35.1814 -35.1814
   -35.1812 -35.1812 -35.1810 -35.1810 -35.1809 -35.1808 -35.1807 -35.1807
   -35.1807 -35.1807 -35.1806 -35.1806 -35.1805 -35.1805 -35.1805 -35.1805
   -35.1805 -35.1804 -35.1804 -35.1804 -35.1803 -35.1803 -35.1803 -35.1802
   -35.1802 -35.1801 -35.1801 -35.1801 -35.1800 -35.1800 -35.1800 -35.1799
   -35.1799 -35.1799 -35.1799 -35.1798 -35.1797 -35.1797 -35.1797 -35.1797
   -35.1796 -35.1796 -35.1795 -35.1794 -35.1794 -35.1793 -35.1792 -35.1792
   -35.1791 -35.1790 -35.1790 -35.1790 -35.1789 -35.1789 -35.1789 -35.1788
   -35.1788 -35.1787 -35.1787 -35.1786 -35.1785 -35.1784 -35.1783 -35.1777
   -35.1762 -35.1758 -35.1667 -35.1649 -35.1648 -35.1644 -35.1642 -35.1641
   -35.1640 -35.1639 -35.1639 -35.1638 -35.1636 -35.1636 -35.1636 -35.1635
   -35.1633 -35.1633 -35.1632 -35.1628 -35.1624 -35.1623 -35.1620 -35.1616
   -35.1614 -35.1614 -35.1613 -35.1612 -35.1610 -35.1610 -35.1609 -35.1609
   -35.1607 -35.1607 -35.1607 -35.1605 -35.1603 -35.1584 -26.0306 -26.0305
   -26.0146 -26.0144 -26.0144 -26.0141 -26.0119 -26.0115 -26.0115 -26.0111
   -25.9772 -25.9770 -25.9769 -25.9766 -25.9555 -25.9554 -25.9554 -25.9552
   -25.9523 -25.9523 -25.9252 -25.9252 -25.9089 -25.9089 -25.9040 -25.9038
   -25.9038 -25.9036 -25.9030 -25.9030 -25.9029 -25.9029 -25.9004 -25.9004
   -25.8948 -25.8948 -25.8948 -25.8948 -25.8930 -25.8929 -25.8928 -25.8927
   -25.8926 -25.8925 -25.8866 -25.8866 -25.8866 -25.8865 -25.8819 -25.8818
   -25.8729 -25.8728 -25.8633 -25.8633  -2.2377  -2.0700  -1.5510  -1.3976
    -1.2623  -1.2614  -1.1202  -1.1193  -1.0608  -0.8118  -0.8110  -0.7825
    -0.7042  -0.6992  -0.6984  -0.6680  -0.5709  -0.5558  -0.5548  -0.4861
    -0.3671  -0.3661  -0.3301  -0.3290  -0.2995  -0.2988  -0.2630  -0.2541
    -0.2534  -0.1976  -0.1964  -0.1553  -0.0635  -0.0620  -0.0165  -0.0149
     6.0657   6.3237   6.5278   6.6501   6.6502   6.8193   6.8499   6.8502
     6.8609   6.8887   6.8889   6.9857   6.9859   7.0595   7.0603   7.2105
     7.2111   7.3303   7.3312   7.4599   7.4605   7.4744   7.5075   7.5860
     7.6771   7.6776   7.6918   7.6923   7.7156   7.7162   7.9670   7.9673
     8.0387   8.0566   8.0819   8.0825   8.1611   8.2500   8.2503   8.4260
     8.4267   8.4875   8.4882   8.5290   8.5294   8.5353   8.6407   8.6413
     8.6677   8.6679   8.7208   8.8443   8.8446   9.0610   9.1730   9.1738
     9.3037   9.3052   9.3257   9.3259   9.4056   9.4417   9.4426   9.4623
     9.4634   9.4794   9.5238   9.6228   9.6423   9.6557   9.6571  10.0088
    10.0134  10.0326  10.0738  10.2190  10.2209  10.2682  10.4306  10.4312
    10.4400  10.4414  10.4523  10.4535  10.5114  10.5126  10.5330  10.5348
    10.5548  10.5560  10.5948  10.6015  10.6219  10.6233  10.6649  10.7467
    10.7483  10.7613  10.7617  10.8377  10.8853  11.0384  11.0422  11.0432
    11.1280  11.1329  11.2374  11.2863  11.4074  11.4237  11.4742  11.4775
    11.5290  11.5318  11.5324  11.5334  11.5355  11.5999  11.6098  11.6104
    12.0677  12.0683  12.2153  12.2164  12.3032  12.6038

          k =-0.2500-0.4330 0.1957 ( 92753 PWs)   bands (ev):

   -61.7358 -61.7358 -61.7344 -61.7343 -61.7342 -61.7341 -61.7314 -61.7311
   -61.7311 -61.7310 -61.7302 -61.7301 -61.7300 -61.7300 -61.7300 -61.7297
   -61.7296 -61.7294 -35.2223 -35.2221 -35.2203 -35.2202 -35.2197 -35.2196
   -35.2195 -35.2193 -35.2193 -35.2193 -35.2192 -35.2191 -35.2191 -35.2191
   -35.2191 -35.2190 -35.2190 -35.2190 -35.2189 -35.2189 -35.2189 -35.2189
   -35.2188 -35.2187 -35.2187 -35.2186 -35.2186 -35.2185 -35.2185 -35.2184
   -35.2184 -35.2184 -35.2182 -35.2182 -35.2182 -35.2181 -35.2181 -35.2180
   -35.2180 -35.2180 -35.2179 -35.2178 -35.2178 -35.2176 -35.2176 -35.2175
   -35.2172 -35.2170 -35.2169 -35.2168 -35.2168 -35.2168 -35.2166 -35.2166
   -35.2165 -35.2165 -35.2165 -35.2164 -35.2163 -35.2162 -35.2161 -35.2161
   -35.2160 -35.2160 -35.2158 -35.2158 -35.2157 -35.2156 -35.2154 -35.2152
   -35.2136 -35.2134 -35.1842 -35.1838 -35.1822 -35.1816 -35.1813 -35.1813
   -35.1812 -35.1812 -35.1811 -35.1810 -35.1810 -35.1809 -35.1808 -35.1808
   -35.1808 -35.1807 -35.1807 -35.1807 -35.1806 -35.1806 -35.1806 -35.1806
   -35.1804 -35.1804 -35.1803 -35.1803 -35.1803 -35.1802 -35.1802 -35.1802
   -35.1802 -35.1801 -35.1801 -35.1800 -35.1800 -35.1800 -35.1799 -35.1799
   -35.1799 -35.1799 -35.1798 -35.1798 -35.1797 -35.1797 -35.1796 -35.1796
   -35.1795 -35.1795 -35.1794 -35.1794 -35.1793 -35.1792 -35.1792 -35.1792
   -35.1791 -35.1791 -35.1791 -35.1791 -35.1790 -35.1790 -35.1789 -35.1788
   -35.1788 -35.1788 -35.1787 -35.1787 -35.1786 -35.1784 -35.1783 -35.1777
   -35.1762 -35.1758 -35.1667 -35.1648 -35.1646 -35.1645 -35.1643 -35.1643
   -35.1643 -35.1639 -35.1638 -35.1637 -35.1636 -35.1636 -35.1634 -35.1634
   -35.1634 -35.1633 -35.1632 -35.1627 -35.1624 -35.1622 -35.1620 -35.1618
   -35.1618 -35.1615 -35.1612 -35.1611 -35.1610 -35.1609 -35.1608 -35.1608
   -35.1608 -35.1607 -35.1607 -35.1605 -35.1603 -35.1584 -26.0360 -26.0359
   -26.0358 -26.0356 -26.0278 -26.0277 -26.0091 -26.0090 -25.9979 -25.9977
   -25.9977 -25.9975 -25.9374 -25.9373 -25.9337 -25.9334 -25.9334 -25.9331
   -25.9314 -25.9314 -25.9205 -25.9205 -25.9134 -25.9132 -25.9132 -25.9131
   -25.9125 -25.9124 -25.9124 -25.9123 -25.9103 -25.9101 -25.9101 -25.9098
   -25.8963 -25.8960 -25.8960 -25.8958 -25.8953 -25.8952 -25.8903 -25.8901
   -25.8901 -25.8900 -25.8900 -25.8897 -25.8879 -25.8878 -25.8804 -25.8802
   -25.8802 -25.8800 -25.8693 -25.8693  -2.0526  -1.8873  -1.7088  -1.7079
    -1.5507  -1.5497  -0.9640  -0.8949  -0.8938  -0.7853  -0.7845  -0.7742
    -0.7731  -0.7007  -0.5521  -0.5512  -0.5361  -0.5069  -0.5060  -0.4495
    -0.4303  -0.4294  -0.3723  -0.3671  -0.3662  -0.3152  -0.2203  -0.2194
    -0.1836  -0.1816  -0.1803  -0.1071  -0.1022  -0.1009  -0.0865  -0.0498
     6.2469   6.2474   6.3000   6.4447   6.4454   6.4704   6.6463   6.7138
     6.7151   6.9357   6.9930   7.0356   7.0364   7.0405   7.1889   7.1894
     7.3121   7.3512   7.3991   7.3998   7.4096   7.4110   7.4559   7.4566
     7.5097   7.6266   7.7960   7.7969   7.9152   7.9161   8.0744   8.0751
     8.1349   8.1528   8.1539   8.2126   8.3341   8.3493   8.3500   8.3650
     8.3656   8.4255   8.4261   8.5149   8.5468   8.5477   8.8862   8.9569
     8.9588   8.9821   8.9830   9.1030   9.1181   9.1273   9.1487   9.2489
     9.2715   9.2724   9.3070   9.3217   9.3228   9.3302   9.3684   9.3695
     9.4046   9.4365   9.4384   9.5759   9.7959   9.8512   9.8535   9.8955
     9.8964   9.9924   9.9932   9.9937   9.9958  10.1032  10.1711  10.1913
    10.2377  10.2901  10.2914  10.3988  10.4007  10.4312  10.4354  10.4373
    10.4452  10.4461  10.4662  10.5052  10.5069  10.5827  10.5835  10.6705
    10.7011  10.7012  10.7833  10.7836  10.8788  10.8792  11.0080  11.0084
    11.0824  11.3942  11.3947  11.5005  11.6479  11.6484  11.6580  11.6588
    11.6732  11.6739  11.7599  11.7602  11.7746  11.7759  11.8116  11.8123
    11.8238  11.8921  11.9020  12.0713  12.1241  12.2685

          k =-0.2500 0.4330-0.1957 ( 92753 PWs)   bands (ev):

   -61.7358 -61.7358 -61.7344 -61.7343 -61.7342 -61.7341 -61.7313 -61.7311
   -61.7311 -61.7310 -61.7303 -61.7300 -61.7300 -61.7300 -61.7299 -61.7297
   -61.7296 -61.7294 -35.2223 -35.2222 -35.2203 -35.2202 -35.2198 -35.2196
   -35.2194 -35.2194 -35.2193 -35.2192 -35.2191 -35.2191 -35.2191 -35.2191
   -35.2190 -35.2190 -35.2190 -35.2189 -35.2189 -35.2189 -35.2189 -35.2189
   -35.2188 -35.2187 -35.2187 -35.2186 -35.2186 -35.2185 -35.2185 -35.2185
   -35.2184 -35.2184 -35.2183 -35.2183 -35.2182 -35.2181 -35.2180 -35.2180
   -35.2180 -35.2179 -35.2179 -35.2178 -35.2176 -35.2176 -35.2176 -35.2175
   -35.2173 -35.2172 -35.2169 -35.2168 -35.2168 -35.2168 -35.2167 -35.2166
   -35.2166 -35.2165 -35.2165 -35.2163 -35.2163 -35.2162 -35.2161 -35.2161
   -35.2160 -35.2160 -35.2158 -35.2158 -35.2158 -35.2156 -35.2154 -35.2152
   -35.2136 -35.2134 -35.1842 -35.1838 -35.1822 -35.1816 -35.1814 -35.1813
   -35.1811 -35.1811 -35.1811 -35.1810 -35.1810 -35.1809 -35.1808 -35.1808
   -35.1808 -35.1808 -35.1807 -35.1807 -35.1806 -35.1806 -35.1806 -35.1806
   -35.1804 -35.1804 -35.1803 -35.1803 -35.1803 -35.1802 -35.1802 -35.1802
   -35.1802 -35.1801 -35.1801 -35.1800 -35.1800 -35.1800 -35.1800 -35.1799
   -35.1799 -35.1798 -35.1798 -35.1798 -35.1797 -35.1797 -35.1796 -35.1796
   -35.1795 -35.1795 -35.1794 -35.1794 -35.1793 -35.1793 -35.1792 -35.1792
   -35.1791 -35.1791 -35.1791 -35.1791 -35.1790 -35.1790 -35.1789 -35.1788
   -35.1788 -35.1788 -35.1787 -35.1786 -35.1786 -35.1785 -35.1783 -35.1777
   -35.1762 -35.1758 -35.1667 -35.1648 -35.1646 -35.1644 -35.1643 -35.1643
   -35.1643 -35.1639 -35.1638 -35.1637 -35.1636 -35.1636 -35.1635 -35.1634
   -35.1634 -35.1633 -35.1631 -35.1627 -35.1623 -35.1622 -35.1620 -35.1618
   -35.1618 -35.1614 -35.1612 -35.1611 -35.1610 -35.1609 -35.1608 -35.1608
   -35.1608 -35.1607 -35.1607 -35.1605 -35.1603 -35.1584 -26.0361 -26.0359
   -26.0358 -26.0357 -26.0277 -26.0277 -26.0091 -26.0091 -25.9978 -25.9977
   -25.9977 -25.9974 -25.9373 -25.9373 -25.9337 -25.9334 -25.9334 -25.9331
   -25.9315 -25.9314 -25.9205 -25.9205 -25.9135 -25.9132 -25.9132 -25.9131
   -25.9125 -25.9124 -25.9124 -25.9122 -25.9103 -25.9101 -25.9101 -25.9098
   -25.8963 -25.8960 -25.8960 -25.8958 -25.8953 -25.8953 -25.8903 -25.8901
   -25.8900 -25.8900 -25.8900 -25.8898 -25.8879 -25.8878 -25.8804 -25.8802
   -25.8802 -25.8800 -25.8693 -25.8692  -2.0526  -1.8873  -1.7088  -1.7079
    -1.5507  -1.5497  -0.9640  -0.8951  -0.8940  -0.7853  -0.7845  -0.7744
    -0.7733  -0.7008  -0.5521  -0.5512  -0.5359  -0.5066  -0.5058  -0.4493
    -0.4301  -0.4292  -0.3726  -0.3669  -0.3660  -0.3155  -0.2201  -0.2192
    -0.1839  -0.1817  -0.1807  -0.1067  -0.1024  -0.1012  -0.0868  -0.0495
     6.2466   6.2472   6.3001   6.4445   6.4451   6.4709   6.6468   6.7139
     6.7151   6.9355   6.9929   7.0357   7.0365   7.0406   7.1891   7.1896
     7.3116   7.3508   7.3995   7.4001   7.4096   7.4110   7.4562   7.4570
     7.5104   7.6273   7.7958   7.7967   7.9150   7.9161   8.0747   8.0755
     8.1343   8.1524   8.1535   8.2126   8.3339   8.3488   8.3496   8.3649
     8.3655   8.4253   8.4261   8.5143   8.5472   8.5479   8.8856   8.9568
     8.9588   8.9818   8.9831   9.1024   9.1185   9.1273   9.1491   9.2485
     9.2714   9.2726   9.3061   9.3222   9.3231   9.3300   9.3684   9.3692
     9.4053   9.4360   9.4379   9.5758   9.7958   9.8515   9.8536   9.8956
     9.8965   9.9925   9.9934   9.9941   9.9963  10.1016  10.1706  10.1909
    10.2383  10.2899  10.2913  10.3988  10.4008  10.4329  10.4354  10.4374
    10.4450  10.4457  10.4662  10.5067  10.5082  10.5829  10.5833  10.6706
    10.7012  10.7017  10.7832  10.7835  10.8791  10.8794  11.0081  11.0085
    11.0816  11.3939  11.3945  11.5005  11.6480  11.6489  11.6575  11.6582
    11.6738  11.6742  11.7596  11.7608  11.7752  11.7755  11.8111  11.8121
    11.8235  11.8925  11.9018  12.0717  12.1239  12.2680

          k = 0.2500-0.4330-0.1957 ( 92753 PWs)   bands (ev):

   -61.7358 -61.7358 -61.7344 -61.7343 -61.7342 -61.7341 -61.7313 -61.7311
   -61.7311 -61.7310 -61.7303 -61.7300 -61.7300 -61.7300 -61.7299 -61.7297
   -61.7296 -61.7294 -35.2223 -35.2222 -35.2203 -35.2202 -35.2198 -35.2196
   -35.2194 -35.2194 -35.2193 -35.2192 -35.2191 -35.2191 -35.2191 -35.2191
   -35.2190 -35.2190 -35.2190 -35.2189 -35.2189 -35.2189 -35.2189 -35.2189
   -35.2188 -35.2187 -35.2187 -35.2186 -35.2186 -35.2185 -35.2185 -35.2185
   -35.2184 -35.2184 -35.2183 -35.2183 -35.2182 -35.2181 -35.2180 -35.2180
   -35.2180 -35.2179 -35.2179 -35.2178 -35.2176 -35.2176 -35.2176 -35.2175
   -35.2173 -35.2172 -35.2169 -35.2168 -35.2168 -35.2168 -35.2167 -35.2166
   -35.2166 -35.2165 -35.2165 -35.2163 -35.2163 -35.2162 -35.2161 -35.2161
   -35.2160 -35.2160 -35.2158 -35.2158 -35.2158 -35.2156 -35.2154 -35.2152
   -35.2136 -35.2134 -35.1842 -35.1838 -35.1822 -35.1816 -35.1814 -35.1813
   -35.1811 -35.1811 -35.1811 -35.1811 -35.1809 -35.1809 -35.1808 -35.1808
   -35.1808 -35.1808 -35.1807 -35.1807 -35.1806 -35.1806 -35.1806 -35.1806
   -35.1804 -35.1804 -35.1803 -35.1803 -35.1803 -35.1802 -35.1802 -35.1802
   -35.1802 -35.1801 -35.1801 -35.1800 -35.1800 -35.1800 -35.1800 -35.1799
   -35.1799 -35.1798 -35.1798 -35.1798 -35.1797 -35.1797 -35.1796 -35.1796
   -35.1795 -35.1795 -35.1794 -35.1794 -35.1793 -35.1793 -35.1792 -35.1792
   -35.1791 -35.1791 -35.1791 -35.1791 -35.1790 -35.1790 -35.1789 -35.1788
   -35.1788 -35.1787 -35.1787 -35.1786 -35.1786 -35.1785 -35.1783 -35.1777
   -35.1762 -35.1758 -35.1667 -35.1648 -35.1646 -35.1644 -35.1643 -35.1643
   -35.1643 -35.1639 -35.1638 -35.1637 -35.1636 -35.1636 -35.1635 -35.1634
   -35.1634 -35.1633 -35.1631 -35.1627 -35.1623 -35.1622 -35.1620 -35.1618
   -35.1618 -35.1614 -35.1612 -35.1611 -35.1611 -35.1609 -35.1608 -35.1608
   -35.1608 -35.1607 -35.1607 -35.1605 -35.1603 -35.1584 -26.0361 -26.0359
   -26.0358 -26.0357 -26.0277 -26.0277 -26.0091 -26.0091 -25.9978 -25.9977
   -25.9977 -25.9974 -25.9373 -25.9373 -25.9337 -25.9334 -25.9334 -25.9331
   -25.9315 -25.9314 -25.9205 -25.9205 -25.9135 -25.9132 -25.9132 -25.9131
   -25.9125 -25.9124 -25.9124 -25.9122 -25.9103 -25.9101 -25.9101 -25.9098
   -25.8963 -25.8960 -25.8960 -25.8958 -25.8953 -25.8953 -25.8903 -25.8901
   -25.8900 -25.8900 -25.8900 -25.8898 -25.8879 -25.8878 -25.8804 -25.8802
   -25.8802 -25.8800 -25.8693 -25.8692  -2.0526  -1.8873  -1.7088  -1.7079
    -1.5507  -1.5497  -0.9640  -0.8951  -0.8940  -0.7853  -0.7845  -0.7744
    -0.7733  -0.7008  -0.5521  -0.5512  -0.5359  -0.5067  -0.5058  -0.4493
    -0.4301  -0.4292  -0.3726  -0.3669  -0.3660  -0.3155  -0.2201  -0.2192
    -0.1839  -0.1817  -0.1807  -0.1068  -0.1024  -0.1012  -0.0868  -0.0495
     6.2466   6.2471   6.3001   6.4444   6.4451   6.4709   6.6468   6.7139
     6.7151   6.9355   6.9929   7.0357   7.0365   7.0406   7.1890   7.1896
     7.3116   7.3508   7.3995   7.4001   7.4096   7.4110   7.4562   7.4570
     7.5104   7.6273   7.7958   7.7967   7.9151   7.9160   8.0747   8.0754
     8.1343   8.1524   8.1535   8.2127   8.3339   8.3489   8.3495   8.3649
     8.3655   8.4254   8.4260   8.5143   8.5471   8.5480   8.8856   8.9569
     8.9588   8.9820   8.9829   9.1024   9.1185   9.1273   9.1492   9.2485
     9.2716   9.2724   9.3061   9.3221   9.3232   9.3300   9.3682   9.3694
     9.4053   9.4360   9.4379   9.5758   9.7958   9.8514   9.8537   9.8956
     9.8965   9.9925   9.9933   9.9942   9.9962  10.1016  10.1705  10.1908
    10.2383  10.2899  10.2913  10.3988  10.4008  10.4329  10.4353  10.4373
    10.4450  10.4457  10.4662  10.5068  10.5082  10.5827  10.5834  10.6706
    10.7014  10.7015  10.7832  10.7835  10.8790  10.8795  11.0081  11.0086
    11.0816  11.3940  11.3945  11.5005  11.6481  11.6488  11.6575  11.6582
    11.6736  11.6744  11.7600  11.7604  11.7747  11.7761  11.8111  11.8121
    11.8235  11.8925  11.9018  12.0717  12.1238  12.2680

          k = 0.5000-0.0000 0.1957 ( 92753 PWs)   bands (ev):

   -61.7358 -61.7358 -61.7343 -61.7342 -61.7342 -61.7342 -61.7312 -61.7311
   -61.7311 -61.7311 -61.7301 -61.7300 -61.7300 -61.7300 -61.7300 -61.7299
   -61.7296 -61.7294 -35.2223 -35.2221 -35.2203 -35.2201 -35.2198 -35.2196
   -35.2194 -35.2193 -35.2193 -35.2192 -35.2192 -35.2191 -35.2191 -35.2191
   -35.2190 -35.2190 -35.2190 -35.2189 -35.2189 -35.2189 -35.2189 -35.2189
   -35.2189 -35.2187 -35.2187 -35.2186 -35.2186 -35.2185 -35.2185 -35.2185
   -35.2184 -35.2184 -35.2182 -35.2182 -35.2182 -35.2181 -35.2181 -35.2180
   -35.2180 -35.2179 -35.2179 -35.2178 -35.2177 -35.2176 -35.2176 -35.2175
   -35.2172 -35.2172 -35.2169 -35.2169 -35.2168 -35.2168 -35.2166 -35.2166
   -35.2166 -35.2165 -35.2165 -35.2164 -35.2163 -35.2162 -35.2161 -35.2161
   -35.2160 -35.2160 -35.2158 -35.2158 -35.2157 -35.2156 -35.2154 -35.2152
   -35.2136 -35.2134 -35.1842 -35.1838 -35.1822 -35.1816 -35.1813 -35.1813
   -35.1811 -35.1811 -35.1811 -35.1811 -35.1809 -35.1809 -35.1808 -35.1808
   -35.1808 -35.1807 -35.1807 -35.1807 -35.1806 -35.1806 -35.1806 -35.1805
   -35.1804 -35.1804 -35.1803 -35.1803 -35.1803 -35.1802 -35.1802 -35.1802
   -35.1801 -35.1801 -35.1801 -35.1801 -35.1800 -35.1800 -35.1800 -35.1799
   -35.1799 -35.1799 -35.1798 -35.1798 -35.1797 -35.1797 -35.1797 -35.1796
   -35.1795 -35.1795 -35.1795 -35.1793 -35.1793 -35.1793 -35.1792 -35.1792
   -35.1791 -35.1791 -35.1791 -35.1791 -35.1790 -35.1790 -35.1789 -35.1788
   -35.1788 -35.1788 -35.1787 -35.1787 -35.1786 -35.1784 -35.1783 -35.1777
   -35.1762 -35.1758 -35.1667 -35.1648 -35.1646 -35.1645 -35.1643 -35.1643
   -35.1643 -35.1640 -35.1638 -35.1637 -35.1636 -35.1635 -35.1634 -35.1634
   -35.1634 -35.1633 -35.1632 -35.1627 -35.1624 -35.1622 -35.1620 -35.1618
   -35.1618 -35.1614 -35.1612 -35.1611 -35.1611 -35.1609 -35.1608 -35.1608
   -35.1608 -35.1607 -35.1607 -35.1605 -35.1603 -35.1584 -26.0359 -26.0359
   -26.0358 -26.0358 -26.0277 -26.0277 -26.0091 -26.0091 -25.9977 -25.9977
   -25.9977 -25.9976 -25.9374 -25.9373 -25.9335 -25.9334 -25.9334 -25.9333
   -25.9314 -25.9314 -25.9205 -25.9205 -25.9133 -25.9132 -25.9132 -25.9132
   -25.9124 -25.9124 -25.9124 -25.9124 -25.9101 -25.9101 -25.9101 -25.9100
   -25.8961 -25.8960 -25.8960 -25.8960 -25.8953 -25.8953 -25.8901 -25.8901
   -25.8900 -25.8900 -25.8900 -25.8900 -25.8879 -25.8878 -25.8802 -25.8802
   -25.8802 -25.8801 -25.8693 -25.8693  -2.0526  -1.8873  -1.7084  -1.7083
    -1.5503  -1.5501  -0.9640  -0.8945  -0.8944  -0.7850  -0.7848  -0.7738
    -0.7737  -0.7007  -0.5517  -0.5516  -0.5360  -0.5065  -0.5061  -0.4494
    -0.4299  -0.4296  -0.3725  -0.3667  -0.3664  -0.3153  -0.2199  -0.2196
    -0.1835  -0.1814  -0.1810  -0.1069  -0.1019  -0.1015  -0.0867  -0.0496
     6.2467   6.2473   6.3000   6.4447   6.4452   6.4707   6.6466   6.7144
     6.7146   6.9356   6.9929   7.0360   7.0362   7.0405   7.1891   7.1893
     7.3119   7.3510   7.3995   7.3998   7.4103   7.4103   7.4562   7.4567
     7.5100   7.6270   7.7962   7.7965   7.9151   7.9160   8.0745   8.0753
     8.1346   8.1529   8.1535   8.2126   8.3340   8.3491   8.3498   8.3651
     8.3653   8.4254   8.4261   8.5146   8.5471   8.5477   8.8859   8.9572
     8.9584   8.9818   8.9832   9.1027   9.1183   9.1273   9.1489   9.2487
     9.2713   9.2727   9.3066   9.3221   9.3228   9.3301   9.3686   9.3691
     9.4049   9.4368   9.4376   9.5758   9.7958   9.8519   9.8530   9.8959
     9.8961   9.9925   9.9932   9.9942   9.9957  10.1024  10.1708  10.1911
    10.2380  10.2901  10.2913  10.3995  10.4001  10.4320  10.4361  10.4366
    10.4453  10.4458  10.4662  10.5061  10.5073  10.5830  10.5833  10.6705
    10.7010  10.7016  10.7832  10.7836  10.8789  10.8794  11.0082  11.0083
    11.0820  11.3941  11.3946  11.5005  11.6477  11.6489  11.6581  11.6582
    11.6737  11.6738  11.7593  11.7610  11.7751  11.7755  11.8116  11.8122
    11.8234  11.8923  11.9019  12.0715  12.1240  12.2682

          k =-0.5000 0.0000 0.1957 ( 92753 PWs)   bands (ev):

   -61.7358 -61.7358 -61.7343 -61.7342 -61.7342 -61.7342 -61.7312 -61.7311
   -61.7311 -61.7311 -61.7301 -61.7300 -61.7300 -61.7300 -61.7300 -61.7299
   -61.7296 -61.7294 -35.2223 -35.2221 -35.2203 -35.2201 -35.2198 -35.2196
   -35.2194 -35.2193 -35.2193 -35.2192 -35.2192 -35.2191 -35.2191 -35.2191
   -35.2190 -35.2190 -35.2190 -35.2189 -35.2189 -35.2189 -35.2189 -35.2189
   -35.2189 -35.2187 -35.2187 -35.2186 -35.2186 -35.2185 -35.2185 -35.2185
   -35.2184 -35.2184 -35.2182 -35.2182 -35.2182 -35.2181 -35.2180 -35.2180
   -35.2180 -35.2179 -35.2179 -35.2178 -35.2177 -35.2176 -35.2176 -35.2175
   -35.2172 -35.2172 -35.2169 -35.2169 -35.2168 -35.2168 -35.2166 -35.2166
   -35.2166 -35.2165 -35.2165 -35.2164 -35.2163 -35.2162 -35.2161 -35.2161
   -35.2160 -35.2160 -35.2158 -35.2158 -35.2157 -35.2156 -35.2154 -35.2152
   -35.2136 -35.2134 -35.1842 -35.1838 -35.1822 -35.1816 -35.1813 -35.1813
   -35.1812 -35.1811 -35.1811 -35.1810 -35.1810 -35.1809 -35.1808 -35.1808
   -35.1808 -35.1807 -35.1807 -35.1807 -35.1806 -35.1806 -35.1806 -35.1806
   -35.1804 -35.1804 -35.1803 -35.1803 -35.1803 -35.1802 -35.1802 -35.1802
   -35.1801 -35.1801 -35.1801 -35.1801 -35.1800 -35.1800 -35.1800 -35.1799
   -35.1799 -35.1799 -35.1798 -35.1798 -35.1797 -35.1797 -35.1797 -35.1796
   -35.1795 -35.1795 -35.1795 -35.1793 -35.1793 -35.1793 -35.1792 -35.1792
   -35.1791 -35.1791 -35.1791 -35.1790 -35.1790 -35.1790 -35.1789 -35.1788
   -35.1788 -35.1788 -35.1787 -35.1787 -35.1786 -35.1784 -35.1783 -35.1777
   -35.1762 -35.1758 -35.1667 -35.1648 -35.1646 -35.1645 -35.1643 -35.1643
   -35.1643 -35.1640 -35.1638 -35.1637 -35.1636 -35.1635 -35.1634 -35.1634
   -35.1634 -35.1633 -35.1632 -35.1627 -35.1624 -35.1622 -35.1620 -35.1618
   -35.1618 -35.1614 -35.1612 -35.1611 -35.1611 -35.1609 -35.1608 -35.1608
   -35.1608 -35.1607 -35.1607 -35.1605 -35.1603 -35.1584 -26.0359 -26.0359
   -26.0358 -26.0358 -26.0277 -26.0277 -26.0091 -26.0091 -25.9977 -25.9977
   -25.9977 -25.9976 -25.9374 -25.9373 -25.9335 -25.9334 -25.9334 -25.9333
   -25.9314 -25.9314 -25.9205 -25.9205 -25.9133 -25.9132 -25.9132 -25.9132
   -25.9124 -25.9124 -25.9124 -25.9124 -25.9101 -25.9101 -25.9101 -25.9100
   -25.8961 -25.8960 -25.8960 -25.8960 -25.8953 -25.8953 -25.8901 -25.8901
   -25.8900 -25.8900 -25.8900 -25.8900 -25.8879 -25.8878 -25.8802 -25.8802
   -25.8802 -25.8801 -25.8693 -25.8693  -2.0526  -1.8873  -1.7084  -1.7083
    -1.5503  -1.5501  -0.9640  -0.8945  -0.8944  -0.7850  -0.7848  -0.7738
    -0.7737  -0.7007  -0.5518  -0.5516  -0.5360  -0.5065  -0.5061  -0.4493
    -0.4299  -0.4296  -0.3724  -0.3667  -0.3665  -0.3153  -0.2199  -0.2197
    -0.1834  -0.1814  -0.1810  -0.1070  -0.1019  -0.1014  -0.0867  -0.0496
     6.2468   6.2472   6.3000   6.4446   6.4452   6.4707   6.6466   6.7144
     6.7145   6.9356   6.9929   7.0360   7.0362   7.0405   7.1891   7.1894
     7.3119   7.3510   7.3994   7.3998   7.4102   7.4105   7.4562   7.4567
     7.5100   7.6270   7.7960   7.7967   7.9156   7.9156   8.0746   8.0752
     8.1346   8.1528   8.1535   8.2126   8.3340   8.3494   8.3495   8.3651
     8.3654   8.4257   8.4258   8.5146   8.5470   8.5478   8.8859   8.9574
     8.9582   8.9824   8.9827   9.1027   9.1183   9.1273   9.1490   9.2487
     9.2716   9.2724   9.3065   9.3219   9.3230   9.3302   9.3683   9.3694
     9.4049   9.4368   9.4376   9.5758   9.7958   9.8515   9.8533   9.8958
     9.8962   9.9928   9.9929   9.9946   9.9953  10.1024  10.1708  10.1911
    10.2380  10.2903  10.2911  10.3998  10.3999  10.4321  10.4360  10.4366
    10.4451  10.4459  10.4662  10.5062  10.5073  10.5827  10.5835  10.6705
    10.7013  10.7014  10.7832  10.7836  10.8788  10.8794  11.0081  11.0084
    11.0820  11.3942  11.3945  11.5005  11.6482  11.6484  11.6579  11.6583
    11.6733  11.6742  11.7601  11.7602  11.7744  11.7763  11.8117  11.8121
    11.8234  11.8923  11.9019  12.0716  12.1239  12.2682

          k =-0.2500 0.1443 0.1957 ( 92754 PWs)   bands (ev):

   -61.7367 -61.7367 -61.7336 -61.7336 -61.7325 -61.7325 -61.7324 -61.7324
   -61.7310 -61.7309 -61.7309 -61.7309 -61.7305 -61.7304 -61.7293 -61.7293
   -61.7293 -61.7292 -35.2223 -35.2222 -35.2204 -35.2202 -35.2199 -35.2196
   -35.2196 -35.2195 -35.2193 -35.2193 -35.2193 -35.2192 -35.2192 -35.2192
   -35.2192 -35.2191 -35.2191 -35.2190 -35.2189 -35.2189 -35.2189 -35.2189
   -35.2188 -35.2188 -35.2188 -35.2187 -35.2186 -35.2186 -35.2186 -35.2186
   -35.2185 -35.2183 -35.2183 -35.2183 -35.2181 -35.2180 -35.2177 -35.2177
   -35.2176 -35.2176 -35.2176 -35.2174 -35.2173 -35.2172 -35.2172 -35.2172
   -35.2172 -35.2170 -35.2169 -35.2168 -35.2168 -35.2168 -35.2166 -35.2166
   -35.2166 -35.2165 -35.2165 -35.2165 -35.2165 -35.2164 -35.2164 -35.2162
   -35.2161 -35.2161 -35.2161 -35.2159 -35.2158 -35.2155 -35.2155 -35.2152
   -35.2136 -35.2135 -35.1842 -35.1838 -35.1822 -35.1817 -35.1814 -35.1814
   -35.1812 -35.1812 -35.1810 -35.1810 -35.1809 -35.1808 -35.1807 -35.1807
   -35.1807 -35.1806 -35.1806 -35.1806 -35.1805 -35.1805 -35.1805 -35.1805
   -35.1804 -35.1804 -35.1804 -35.1804 -35.1803 -35.1803 -35.1802 -35.1802
   -35.1802 -35.1801 -35.1801 -35.1801 -35.1801 -35.1800 -35.1800 -35.1799
   -35.1799 -35.1799 -35.1799 -35.1798 -35.1798 -35.1797 -35.1797 -35.1797
   -35.1796 -35.1796 -35.1795 -35.1794 -35.1794 -35.1793 -35.1792 -35.1791
   -35.1791 -35.1790 -35.1790 -35.1790 -35.1790 -35.1789 -35.1789 -35.1788
   -35.1788 -35.1787 -35.1787 -35.1786 -35.1785 -35.1784 -35.1783 -35.1777
   -35.1762 -35.1758 -35.1667 -35.1649 -35.1648 -35.1644 -35.1642 -35.1641
   -35.1640 -35.1639 -35.1639 -35.1638 -35.1636 -35.1636 -35.1636 -35.1635
   -35.1633 -35.1633 -35.1632 -35.1628 -35.1624 -35.1623 -35.1620 -35.1616
   -35.1614 -35.1614 -35.1613 -35.1612 -35.1610 -35.1610 -35.1610 -35.1609
   -35.1607 -35.1607 -35.1607 -35.1605 -35.1603 -35.1584 -26.0306 -26.0305
   -26.0146 -26.0144 -26.0144 -26.0141 -26.0119 -26.0115 -26.0115 -26.0111
   -25.9772 -25.9770 -25.9769 -25.9766 -25.9555 -25.9554 -25.9554 -25.9552
   -25.9523 -25.9523 -25.9252 -25.9252 -25.9089 -25.9089 -25.9040 -25.9038
   -25.9038 -25.9036 -25.9030 -25.9030 -25.9029 -25.9029 -25.9004 -25.9004
   -25.8948 -25.8948 -25.8948 -25.8948 -25.8930 -25.8929 -25.8928 -25.8927
   -25.8926 -25.8925 -25.8866 -25.8866 -25.8866 -25.8865 -25.8819 -25.8818
   -25.8729 -25.8728 -25.8633 -25.8633  -2.2377  -2.0700  -1.5510  -1.3976
    -1.2623  -1.2614  -1.1202  -1.1193  -1.0608  -0.8118  -0.8110  -0.7825
    -0.7042  -0.6992  -0.6983  -0.6680  -0.5709  -0.5558  -0.5548  -0.4861
    -0.3671  -0.3661  -0.3301  -0.3290  -0.2995  -0.2988  -0.2630  -0.2540
    -0.2534  -0.1976  -0.1963  -0.1553  -0.0635  -0.0620  -0.0165  -0.0149
     6.0657   6.3238   6.5277   6.6499   6.6501   6.8192   6.8501   6.8504
     6.8608   6.8888   6.8890   6.9855   6.9857   7.0597   7.0607   7.2104
     7.2113   7.3304   7.3311   7.4592   7.4599   7.4749   7.5076   7.5859
     7.6771   7.6780   7.6912   7.6920   7.7154   7.7160   7.9680   7.9686
     8.0390   8.0565   8.0819   8.0825   8.1600   8.2497   8.2503   8.4265
     8.4271   8.4872   8.4881   8.5283   8.5295   8.5354   8.6408   8.6412
     8.6676   8.6679   8.7213   8.8437   8.8443   9.0609   9.1737   9.1741
     9.3044   9.3053   9.3255   9.3257   9.4056   9.4412   9.4426   9.4620
     9.4629   9.4794   9.5239   9.6227   9.6422   9.6561   9.6574  10.0089
    10.0133  10.0325  10.0738  10.2190  10.2209  10.2680  10.4303  10.4309
    10.4400  10.4413  10.4530  10.4536  10.5110  10.5124  10.5332  10.5348
    10.5555  10.5563  10.5950  10.6016  10.6220  10.6227  10.6648  10.7474
    10.7479  10.7606  10.7614  10.8377  10.8853  11.0390  11.0425  11.0431
    11.1275  11.1329  11.2374  11.2863  11.4074  11.4237  11.4745  11.4765
    11.5302  11.5319  11.5326  11.5333  11.5358  11.5993  11.6096  11.6101
    12.0674  12.0684  12.2155  12.2163  12.3033  12.6037

          k =-0.2500-0.1443-0.1957 ( 92754 PWs)   bands (ev):

   -61.7367 -61.7367 -61.7336 -61.7336 -61.7325 -61.7325 -61.7324 -61.7324
   -61.7310 -61.7309 -61.7309 -61.7309 -61.7305 -61.7304 -61.7293 -61.7293
   -61.7293 -61.7292 -35.2223 -35.2222 -35.2203 -35.2201 -35.2198 -35.2197
   -35.2196 -35.2195 -35.2193 -35.2193 -35.2193 -35.2193 -35.2192 -35.2192
   -35.2192 -35.2191 -35.2191 -35.2190 -35.2190 -35.2189 -35.2189 -35.2189
   -35.2188 -35.2188 -35.2187 -35.2187 -35.2186 -35.2186 -35.2186 -35.2186
   -35.2185 -35.2183 -35.2183 -35.2182 -35.2182 -35.2180 -35.2178 -35.2177
   -35.2177 -35.2176 -35.2176 -35.2175 -35.2173 -35.2172 -35.2172 -35.2172
   -35.2171 -35.2170 -35.2169 -35.2168 -35.2168 -35.2168 -35.2166 -35.2166
   -35.2165 -35.2165 -35.2165 -35.2165 -35.2165 -35.2164 -35.2163 -35.2162
   -35.2161 -35.2161 -35.2160 -35.2159 -35.2158 -35.2157 -35.2155 -35.2153
   -35.2136 -35.2135 -35.1842 -35.1838 -35.1822 -35.1817 -35.1814 -35.1813
   -35.1812 -35.1812 -35.1811 -35.1810 -35.1809 -35.1808 -35.1807 -35.1807
   -35.1807 -35.1807 -35.1806 -35.1806 -35.1805 -35.1805 -35.1805 -35.1805
   -35.1804 -35.1804 -35.1804 -35.1804 -35.1803 -35.1803 -35.1802 -35.1802
   -35.1802 -35.1801 -35.1801 -35.1801 -35.1800 -35.1800 -35.1800 -35.1800
   -35.1799 -35.1799 -35.1799 -35.1798 -35.1797 -35.1797 -35.1797 -35.1797
   -35.1796 -35.1796 -35.1795 -35.1794 -35.1794 -35.1793 -35.1792 -35.1792
   -35.1791 -35.1790 -35.1790 -35.1790 -35.1790 -35.1789 -35.1789 -35.1788
   -35.1788 -35.1787 -35.1787 -35.1787 -35.1786 -35.1783 -35.1783 -35.1777
   -35.1762 -35.1758 -35.1667 -35.1649 -35.1648 -35.1644 -35.1643 -35.1641
   -35.1640 -35.1639 -35.1639 -35.1638 -35.1636 -35.1636 -35.1635 -35.1635
   -35.1633 -35.1633 -35.1632 -35.1627 -35.1624 -35.1623 -35.1620 -35.1616
   -35.1614 -35.1614 -35.1613 -35.1612 -35.1610 -35.1610 -35.1609 -35.1608
   -35.1607 -35.1607 -35.1607 -35.1606 -35.1603 -35.1584 -26.0305 -26.0304
   -26.0147 -26.0144 -26.0144 -26.0141 -26.0119 -26.0115 -26.0115 -26.0111
   -25.9773 -25.9770 -25.9769 -25.9767 -25.9555 -25.9554 -25.9554 -25.9552
   -25.9523 -25.9522 -25.9253 -25.9252 -25.9089 -25.9089 -25.9040 -25.9038
   -25.9038 -25.9036 -25.9030 -25.9030 -25.9029 -25.9029 -25.9005 -25.9004
   -25.8948 -25.8948 -25.8948 -25.8947 -25.8930 -25.8929 -25.8928 -25.8926
   -25.8926 -25.8925 -25.8866 -25.8866 -25.8866 -25.8866 -25.8819 -25.8819
   -25.8728 -25.8728 -25.8634 -25.8633  -2.2378  -2.0700  -1.5512  -1.3977
    -1.2621  -1.2612  -1.1201  -1.1191  -1.0608  -0.8117  -0.8109  -0.7825
    -0.7040  -0.6991  -0.6982  -0.6683  -0.5713  -0.5559  -0.5550  -0.4859
    -0.3674  -0.3663  -0.3303  -0.3291  -0.2995  -0.2988  -0.2626  -0.2541
    -0.2533  -0.1977  -0.1965  -0.1549  -0.0635  -0.0620  -0.0165  -0.0150
     6.0656   6.3242   6.5282   6.6498   6.6499   6.8192   6.8499   6.8502
     6.8605   6.8887   6.8889   6.9855   6.9856   7.0599   7.0607   7.2105
     7.2111   7.3303   7.3312   7.4593   7.4598   7.4747   7.5073   7.5855
     7.6773   7.6778   7.6914   7.6919   7.7153   7.7160   7.9682   7.9685
     8.0390   8.0559   8.0820   8.0826   8.1600   8.2500   8.2503   8.4268
     8.4275   8.4876   8.4883   8.5288   8.5293   8.5347   8.6411   8.6417
     8.6675   8.6678   8.7219   8.8439   8.8442   9.0615   9.1735   9.1742
     9.3051   9.3065   9.3256   9.3257   9.4046   9.4423   9.4431   9.4620
     9.4631   9.4783   9.5243   9.6223   9.6417   9.6558   9.6574  10.0076
    10.0138  10.0331  10.0724  10.2190  10.2208  10.2687  10.4297  10.4305
    10.4397  10.4410  10.4523  10.4536  10.5112  10.5122  10.5342  10.5363
    10.5554  10.5568  10.5948  10.6018  10.6207  10.6221  10.6651  10.7462
    10.7477  10.7613  10.7617  10.8355  10.8830  11.0403  11.0424  11.0444
    11.1277  11.1327  11.2385  11.2861  11.4077  11.4248  11.4729  11.4762
    11.5305  11.5319  11.5324  11.5337  11.5350  11.6004  11.6095  11.6103
    12.0676  12.0682  12.2153  12.2164  12.3034  12.6039

          k = 0.2500 0.1443-0.1957 ( 92754 PWs)   bands (ev):

   -61.7367 -61.7367 -61.7336 -61.7336 -61.7325 -61.7325 -61.7324 -61.7324
   -61.7310 -61.7309 -61.7309 -61.7309 -61.7305 -61.7304 -61.7293 -61.7293
   -61.7293 -61.7292 -35.2223 -35.2222 -35.2203 -35.2201 -35.2198 -35.2197
   -35.2196 -35.2195 -35.2193 -35.2193 -35.2193 -35.2193 -35.2192 -35.2192
   -35.2192 -35.2191 -35.2191 -35.2190 -35.2190 -35.2189 -35.2189 -35.2189
   -35.2188 -35.2188 -35.2187 -35.2187 -35.2186 -35.2186 -35.2186 -35.2186
   -35.2185 -35.2183 -35.2183 -35.2182 -35.2182 -35.2180 -35.2178 -35.2177
   -35.2177 -35.2176 -35.2176 -35.2175 -35.2173 -35.2172 -35.2172 -35.2172
   -35.2171 -35.2170 -35.2169 -35.2168 -35.2168 -35.2168 -35.2166 -35.2166
   -35.2165 -35.2165 -35.2165 -35.2165 -35.2165 -35.2164 -35.2163 -35.2162
   -35.2161 -35.2161 -35.2160 -35.2159 -35.2158 -35.2157 -35.2155 -35.2153
   -35.2136 -35.2135 -35.1842 -35.1838 -35.1822 -35.1817 -35.1814 -35.1814
   -35.1812 -35.1812 -35.1811 -35.1810 -35.1809 -35.1808 -35.1807 -35.1807
   -35.1807 -35.1806 -35.1806 -35.1806 -35.1805 -35.1805 -35.1805 -35.1805
   -35.1804 -35.1804 -35.1804 -35.1804 -35.1803 -35.1803 -35.1802 -35.1802
   -35.1802 -35.1801 -35.1801 -35.1801 -35.1800 -35.1800 -35.1800 -35.1800
   -35.1799 -35.1799 -35.1799 -35.1798 -35.1797 -35.1797 -35.1797 -35.1797
   -35.1796 -35.1796 -35.1795 -35.1794 -35.1794 -35.1793 -35.1792 -35.1791
   -35.1791 -35.1790 -35.1790 -35.1790 -35.1790 -35.1789 -35.1789 -35.1788
   -35.1788 -35.1787 -35.1787 -35.1787 -35.1786 -35.1783 -35.1783 -35.1777
   -35.1762 -35.1758 -35.1667 -35.1649 -35.1648 -35.1644 -35.1643 -35.1641
   -35.1640 -35.1639 -35.1639 -35.1638 -35.1636 -35.1636 -35.1636 -35.1635
   -35.1633 -35.1633 -35.1632 -35.1627 -35.1624 -35.1623 -35.1620 -35.1616
   -35.1614 -35.1614 -35.1613 -35.1612 -35.1610 -35.1610 -35.1609 -35.1608
   -35.1607 -35.1607 -35.1607 -35.1606 -35.1603 -35.1584 -26.0305 -26.0304
   -26.0147 -26.0144 -26.0144 -26.0141 -26.0119 -26.0115 -26.0115 -26.0111
   -25.9773 -25.9770 -25.9769 -25.9767 -25.9555 -25.9554 -25.9554 -25.9552
   -25.9523 -25.9522 -25.9253 -25.9252 -25.9089 -25.9089 -25.9040 -25.9038
   -25.9038 -25.9036 -25.9030 -25.9030 -25.9029 -25.9029 -25.9005 -25.9004
   -25.8948 -25.8948 -25.8948 -25.8947 -25.8930 -25.8929 -25.8928 -25.8926
   -25.8926 -25.8925 -25.8866 -25.8866 -25.8866 -25.8866 -25.8819 -25.8819
   -25.8728 -25.8728 -25.8634 -25.8633  -2.2378  -2.0700  -1.5512  -1.3977
    -1.2622  -1.2612  -1.1201  -1.1191  -1.0608  -0.8117  -0.8109  -0.7825
    -0.7040  -0.6991  -0.6982  -0.6684  -0.5713  -0.5559  -0.5550  -0.4859
    -0.3674  -0.3663  -0.3303  -0.3290  -0.2995  -0.2988  -0.2626  -0.2541
    -0.2533  -0.1977  -0.1965  -0.1549  -0.0635  -0.0620  -0.0165  -0.0150
     6.0656   6.3241   6.5283   6.6499   6.6501   6.8192   6.8497   6.8500
     6.8607   6.8885   6.8888   6.9856   6.9858   7.0595   7.0605   7.2103
     7.2112   7.3304   7.3311   7.4599   7.4606   7.4742   7.5072   7.5855
     7.6769   7.6777   7.6918   7.6925   7.7155   7.7161   7.9669   7.9675
     8.0387   8.0559   8.0820   8.0826   8.1611   8.2500   8.2506   8.4264
     8.4270   8.4877   8.4886   8.5287   8.5299   8.5347   8.6412   8.6416
     8.6676   8.6679   8.7214   8.8442   8.8448   9.0616   9.1732   9.1736
     9.3050   9.3057   9.3257   9.3260   9.4046   9.4424   9.4436   9.4625
     9.4635   9.4783   9.5242   9.6223   9.6418   9.6556   9.6571  10.0076
    10.0138  10.0331  10.0724  10.2189  10.2209  10.2689  10.4301  10.4307
    10.4396  10.4410  10.4523  10.4530  10.5113  10.5125  10.5343  10.5364
    10.5551  10.5561  10.5945  10.6018  10.6213  10.6220  10.6651  10.7466
    10.7471  10.7616  10.7624  10.8354  10.8830  11.0407  11.0424  11.0430
    11.1282  11.1327  11.2384  11.2861  11.4079  11.4248  11.4739  11.4760
    11.5301  11.5314  11.5323  11.5333  11.5345  11.6009  11.6098  11.6106
    12.0675  12.0685  12.2154  12.2161  12.3033  12.6040

          k = 0.0000-0.2887 0.1957 ( 92754 PWs)   bands (ev):

   -61.7367 -61.7367 -61.7336 -61.7336 -61.7325 -61.7325 -61.7324 -61.7324
   -61.7310 -61.7309 -61.7309 -61.7309 -61.7305 -61.7304 -61.7293 -61.7293
   -61.7293 -61.7292 -35.2223 -35.2222 -35.2204 -35.2202 -35.2198 -35.2197
   -35.2196 -35.2195 -35.2193 -35.2193 -35.2193 -35.2192 -35.2192 -35.2192
   -35.2192 -35.2191 -35.2191 -35.2190 -35.2190 -35.2189 -35.2189 -35.2188
   -35.2188 -35.2188 -35.2187 -35.2187 -35.2186 -35.2186 -35.2186 -35.2186
   -35.2184 -35.2183 -35.2183 -35.2183 -35.2181 -35.2180 -35.2178 -35.2177
   -35.2176 -35.2176 -35.2176 -35.2175 -35.2173 -35.2172 -35.2172 -35.2172
   -35.2171 -35.2171 -35.2169 -35.2168 -35.2168 -35.2167 -35.2166 -35.2166
   -35.2165 -35.2165 -35.2165 -35.2165 -35.2165 -35.2164 -35.2164 -35.2162
   -35.2161 -35.2161 -35.2161 -35.2159 -35.2158 -35.2156 -35.2155 -35.2153
   -35.2136 -35.2135 -35.1842 -35.1838 -35.1822 -35.1817 -35.1814 -35.1814
   -35.1812 -35.1812 -35.1811 -35.1810 -35.1809 -35.1808 -35.1807 -35.1807
   -35.1807 -35.1806 -35.1806 -35.1806 -35.1805 -35.1805 -35.1805 -35.1805
   -35.1804 -35.1804 -35.1804 -35.1804 -35.1803 -35.1803 -35.1802 -35.1802
   -35.1802 -35.1801 -35.1801 -35.1801 -35.1800 -35.1800 -35.1800 -35.1800
   -35.1799 -35.1799 -35.1799 -35.1798 -35.1797 -35.1797 -35.1797 -35.1797
   -35.1796 -35.1796 -35.1795 -35.1794 -35.1794 -35.1793 -35.1792 -35.1791
   -35.1791 -35.1790 -35.1790 -35.1790 -35.1789 -35.1789 -35.1789 -35.1788
   -35.1788 -35.1787 -35.1787 -35.1787 -35.1785 -35.1784 -35.1783 -35.1777
   -35.1762 -35.1758 -35.1667 -35.1649 -35.1648 -35.1644 -35.1642 -35.1641
   -35.1639 -35.1639 -35.1639 -35.1638 -35.1636 -35.1636 -35.1636 -35.1635
   -35.1633 -35.1633 -35.1632 -35.1627 -35.1624 -35.1623 -35.1620 -35.1616
   -35.1614 -35.1614 -35.1614 -35.1611 -35.1610 -35.1610 -35.1609 -35.1609
   -35.1607 -35.1607 -35.1607 -35.1605 -35.1603 -35.1584 -26.0305 -26.0305
   -26.0147 -26.0144 -26.0144 -26.0140 -26.0120 -26.0115 -26.0115 -26.0111
   -25.9773 -25.9770 -25.9769 -25.9766 -25.9557 -25.9554 -25.9554 -25.9551
   -25.9523 -25.9522 -25.9253 -25.9252 -25.9089 -25.9089 -25.9041 -25.9038
   -25.9038 -25.9036 -25.9030 -25.9030 -25.9029 -25.9029 -25.9004 -25.9004
   -25.8948 -25.8948 -25.8948 -25.8947 -25.8929 -25.8929 -25.8928 -25.8928
   -25.8926 -25.8925 -25.8866 -25.8866 -25.8866 -25.8865 -25.8819 -25.8819
   -25.8728 -25.8728 -25.8633 -25.8633  -2.2377  -2.0700  -1.5511  -1.3976
    -1.2624  -1.2611  -1.1204  -1.1190  -1.0608  -0.8119  -0.8108  -0.7825
    -0.7041  -0.6993  -0.6982  -0.6681  -0.5711  -0.5557  -0.5550  -0.4860
    -0.3671  -0.3663  -0.3302  -0.3291  -0.2995  -0.2987  -0.2628  -0.2541
    -0.2533  -0.1976  -0.1965  -0.1551  -0.0635  -0.0620  -0.0165  -0.0150
     6.0657   6.3240   6.5279   6.6498   6.6501   6.8193   6.8500   6.8503
     6.8606   6.8886   6.8890   6.9854   6.9857   7.0595   7.0610   7.2104
     7.2113   7.3303   7.3312   7.4590   7.4601   7.4748   7.5074   7.5857
     7.6770   7.6781   7.6914   7.6918   7.7152   7.7161   7.9680   7.9687
     8.0390   8.0562   8.0817   8.0828   8.1600   8.2497   8.2504   8.4264
     8.4275   8.4871   8.4884   8.5287   8.5292   8.5351   8.6409   8.6416
     8.6674   8.6680   8.7216   8.8437   8.8443   9.0612   9.1735   9.1742
     9.3049   9.3057   9.3256   9.3257   9.4051   9.4420   9.4426   9.4619
     9.4631   9.4789   9.5241   9.6225   9.6419   9.6557   9.6576  10.0083
    10.0136  10.0328  10.0731  10.2189  10.2209  10.2684  10.4298  10.4309
    10.4398  10.4411  10.4525  10.4538  10.5111  10.5122  10.5341  10.5352
    10.5554  10.5566  10.5949  10.6018  10.6212  10.6226  10.6649  10.7467
    10.7480  10.7609  10.7616  10.8366  10.8841  11.0397  11.0425  11.0436
    11.1276  11.1328  11.2379  11.2862  11.4076  11.4243  11.4742  11.4759
    11.5303  11.5319  11.5328  11.5332  11.5353  11.5998  11.6093  11.6105
    12.0674  12.0684  12.2153  12.2164  12.3033  12.6038

          k = 0.0000 0.2887 0.1957 ( 92754 PWs)   bands (ev):

   -61.7367 -61.7367 -61.7336 -61.7336 -61.7325 -61.7325 -61.7324 -61.7324
   -61.7310 -61.7309 -61.7309 -61.7309 -61.7305 -61.7304 -61.7293 -61.7293
   -61.7293 -61.7292 -35.2223 -35.2222 -35.2204 -35.2202 -35.2198 -35.2197
   -35.2196 -35.2195 -35.2193 -35.2193 -35.2193 -35.2192 -35.2192 -35.2192
   -35.2192 -35.2191 -35.2191 -35.2190 -35.2190 -35.2189 -35.2189 -35.2188
   -35.2188 -35.2188 -35.2187 -35.2187 -35.2186 -35.2186 -35.2186 -35.2186
   -35.2184 -35.2183 -35.2183 -35.2183 -35.2181 -35.2180 -35.2178 -35.2177
   -35.2176 -35.2176 -35.2176 -35.2175 -35.2173 -35.2172 -35.2172 -35.2172
   -35.2171 -35.2171 -35.2169 -35.2168 -35.2168 -35.2167 -35.2166 -35.2166
   -35.2165 -35.2165 -35.2165 -35.2165 -35.2165 -35.2164 -35.2164 -35.2162
   -35.2161 -35.2161 -35.2161 -35.2159 -35.2158 -35.2156 -35.2155 -35.2153
   -35.2136 -35.2135 -35.1842 -35.1838 -35.1822 -35.1817 -35.1814 -35.1813
   -35.1812 -35.1812 -35.1811 -35.1810 -35.1809 -35.1808 -35.1807 -35.1807
   -35.1807 -35.1806 -35.1806 -35.1806 -35.1805 -35.1805 -35.1805 -35.1805
   -35.1804 -35.1804 -35.1804 -35.1804 -35.1803 -35.1803 -35.1802 -35.1802
   -35.1802 -35.1801 -35.1801 -35.1801 -35.1800 -35.1800 -35.1800 -35.1799
   -35.1799 -35.1799 -35.1799 -35.1798 -35.1797 -35.1797 -35.1797 -35.1797
   -35.1797 -35.1796 -35.1795 -35.1794 -35.1794 -35.1793 -35.1792 -35.1791
   -35.1791 -35.1790 -35.1790 -35.1790 -35.1789 -35.1789 -35.1789 -35.1788
   -35.1788 -35.1787 -35.1787 -35.1787 -35.1785 -35.1784 -35.1783 -35.1777
   -35.1762 -35.1758 -35.1667 -35.1649 -35.1648 -35.1644 -35.1642 -35.1641
   -35.1639 -35.1639 -35.1639 -35.1638 -35.1636 -35.1636 -35.1636 -35.1635
   -35.1633 -35.1633 -35.1632 -35.1627 -35.1624 -35.1623 -35.1620 -35.1616
   -35.1614 -35.1614 -35.1614 -35.1611 -35.1610 -35.1610 -35.1609 -35.1609
   -35.1607 -35.1607 -35.1607 -35.1605 -35.1603 -35.1584 -26.0305 -26.0305
   -26.0147 -26.0144 -26.0144 -26.0140 -26.0120 -26.0115 -26.0115 -26.0111
   -25.9773 -25.9770 -25.9769 -25.9766 -25.9557 -25.9554 -25.9554 -25.9551
   -25.9523 -25.9522 -25.9253 -25.9252 -25.9089 -25.9089 -25.9041 -25.9038
   -25.9038 -25.9036 -25.9030 -25.9030 -25.9029 -25.9029 -25.9004 -25.9004
   -25.8948 -25.8948 -25.8948 -25.8947 -25.8929 -25.8929 -25.8928 -25.8928
   -25.8926 -25.8925 -25.8866 -25.8866 -25.8866 -25.8865 -25.8819 -25.8819
   -25.8728 -25.8728 -25.8633 -25.8633  -2.2377  -2.0700  -1.5511  -1.3976
    -1.2624  -1.2611  -1.1203  -1.1190  -1.0608  -0.8119  -0.8108  -0.7825
    -0.7041  -0.6993  -0.6982  -0.6681  -0.5711  -0.5558  -0.5550  -0.4860
    -0.3671  -0.3663  -0.3302  -0.3290  -0.2995  -0.2987  -0.2628  -0.2541
    -0.2533  -0.1976  -0.1965  -0.1551  -0.0635  -0.0620  -0.0165  -0.0149
     6.0656   6.3239   6.5281   6.6500   6.6502   6.8193   6.8498   6.8501
     6.8608   6.8885   6.8889   6.9856   6.9859   7.0592   7.0607   7.2103
     7.2113   7.3303   7.3312   7.4597   7.4607   7.4743   7.5074   7.5858
     7.6768   7.6779   7.6919   7.6923   7.7154   7.7163   7.9668   7.9675
     8.0387   8.0562   8.0817   8.0828   8.1611   8.2499   8.2506   8.4260
     8.4270   8.4873   8.4886   8.5290   8.5295   8.5350   8.6408   8.6416
     8.6675   8.6681   8.7211   8.8441   8.8448   9.0613   9.1730   9.1737
     9.3045   9.3053   9.3258   9.3259   9.4051   9.4423   9.4429   9.4623
     9.4635   9.4789   9.5240   9.6225   9.6420   9.6554   9.6573  10.0082
    10.0136  10.0329  10.0731  10.2189  10.2209  10.2685  10.4302  10.4312
    10.4398  10.4412  10.4521  10.4534  10.5114  10.5125  10.5340  10.5352
    10.5549  10.5561  10.5947  10.6017  10.6215  10.6228  10.6650  10.7466
    10.7478  10.7614  10.7621  10.8366  10.8841  11.0396  11.0422  11.0431
    11.1281  11.1328  11.2379  11.2862  11.4076  11.4243  11.4745  11.4763
    11.5292  11.5318  11.5327  11.5335  11.5346  11.6004  11.6095  11.6109
    12.0675  12.0685  12.2152  12.2164  12.3032  12.6039

     highest occupied level (ev):    12.6040

!    total energy              =  -11463.77480773 Ry
     estimated scf accuracy    <          9.2E-11 Ry

     The total energy is the sum of the following terms:
     one-electron contribution =   -5694.57862454 Ry
     hartree contribution      =    3099.95849332 Ry
     xc contribution           =   -2340.30812416 Ry
     ewald contribution        =   -6526.89536333 Ry
     Dispersion Correction     =      -1.95118902 Ry

     convergence has been achieved in  23 iterations

     Forces acting on atoms (cartesian axes, Ry/au):

     atom    1 type  1   force =    -0.00482685    0.00001568   -0.00754796
     atom    2 type  1   force =     0.00005053   -0.00022399   -0.00020587
     atom    3 type  1   force =     0.00004880    0.00022198   -0.00020776
     atom    4 type  1   force =     0.00005379   -0.00021913   -0.00020918
     atom    5 type  1   force =     0.00005593    0.00022052   -0.00020453
     atom    6 type  1   force =     0.00006001   -0.00000044    0.00002212
     atom    7 type  1   force =     0.00005610    0.00022406   -0.00020848
     atom    8 type  1   force =     0.00005991    0.00000033    0.00002211
     atom    9 type  1   force =     0.00005390   -0.00022789   -0.00020560
     atom   10 type  1   force =     0.00000033    0.00000249   -0.00000016
     atom   11 type  1   force =    -0.00000076    0.00000026    0.00000587
     atom   12 type  1   force =     0.00000068   -0.00000219   -0.00000040
     atom   13 type  1   force =     0.00000450    0.00000007   -0.00000029
     atom   14 type  1   force =     0.00000109    0.00000328    0.00001075
     atom   15 type  1   force =     0.00000108   -0.00000284    0.00001074
     atom   16 type  1   force =     0.00000344    0.00000248    0.00000589
     atom   17 type  1   force =     0.00000368   -0.00000262    0.00000589
     atom   18 type  1   force =    -0.00000413    0.00000002    0.00001079
     atom   19 type  2   force =     0.00000629    0.00000008   -0.00045635
     atom   20 type  2   force =     0.00000167    0.00000743   -0.00041902
     atom   21 type  2   force =     0.00000177    0.00000314   -0.00042154
     atom   22 type  2   force =    -0.00000187   -0.00000337   -0.00041806
     atom   23 type  2   force =     0.00000692   -0.00000222   -0.00042230
     atom   24 type  2   force =    -0.00000284   -0.00000010   -0.00043047
     atom   25 type  2   force =    -0.00000479   -0.00000270   -0.00041687
     atom   26 type  2   force =    -0.00000009   -0.00000003   -0.00042651
     atom   27 type  2   force =     0.00000426   -0.00000255   -0.00042364
     atom   28 type  2   force =     0.00191365   -0.00094232    0.00256190
     atom   29 type  2   force =     0.00001206    0.00000013    0.00047697
     atom   30 type  2   force =     0.00005649   -0.00013038    0.00100329
     atom   31 type  2   force =     0.00028226    0.00106605    0.00177520
     atom   32 type  2   force =     0.00005090    0.00007967    0.00051091
     atom   33 type  2   force =    -0.00002618   -0.00003469    0.00046958
     atom   34 type  2   force =     0.00000936   -0.00000147    0.00046446
     atom   35 type  2   force =     0.00000912    0.00000149    0.00048919
     atom   36 type  2   force =    -0.00008637   -0.00004444    0.00049012
     atom   37 type  2   force =     0.00005306    0.00013313    0.00015390
     atom   38 type  2   force =     0.00001088   -0.00000030   -0.00037252
     atom   39 type  2   force =     0.00183478    0.00089538    0.00163408
     atom   40 type  2   force =     0.00028419   -0.00103455    0.00090072
     atom   41 type  2   force =    -0.00002730    0.00003505   -0.00038021
     atom   42 type  2   force =     0.00004877   -0.00007871   -0.00033875
     atom   43 type  2   force =     0.00000895   -0.00000094   -0.00035895
     atom   44 type  2   force =     0.00000803    0.00000144   -0.00038618
     atom   45 type  2   force =    -0.00008742    0.00004401   -0.00035948
     atom   46 type  2   force =     0.00000616    0.00000004    0.00039124
     atom   47 type  2   force =     0.00000146   -0.00000300    0.00042632
     atom   48 type  2   force =     0.00000207   -0.00000727    0.00042890
     atom   49 type  2   force =     0.00000730    0.00000162    0.00042549
     atom   50 type  2   force =    -0.00000216    0.00000274    0.00043000
     atom   51 type  2   force =    -0.00000278   -0.00000014    0.00041728
     atom   52 type  2   force =     0.00000404    0.00000276    0.00042423
     atom   53 type  2   force =    -0.00000021   -0.00000003    0.00042177
     atom   54 type  2   force =    -0.00000451    0.00000294    0.00043138

     Total force =     0.010568     Total SCF correction =     0.000056


     Computing stress (Cartesian axis) and pressure

          total   stress  (Ry/bohr**3)                   (kbar)     P=      -17.30
  -0.00014240  -0.00000043   0.00000003          -20.95       -0.06        0.00
  -0.00000043  -0.00014239  -0.00000000           -0.06      -20.95       -0.00
   0.00000003  -0.00000000  -0.00006795            0.00       -0.00      -10.00


     Writing all to output data dir ./WSe.save/ :
     XML data file, charge density, pseudopotentials, collected wavefunctions
 
     init_run     :     10.78s CPU     12.73s WALL (       1 calls)
     electrons    :    755.66s CPU    911.77s WALL (       1 calls)
     forces       :      7.49s CPU      8.19s WALL (       1 calls)
     force_london :      0.04s CPU      0.04s WALL (       1 calls)
     stress       :    117.76s CPU    124.05s WALL (       1 calls)
     stres_london :      0.04s CPU      0.04s WALL (       1 calls)

     Called by init_run:
     wfcinit      :      9.83s CPU     11.56s WALL (       1 calls)
     potinit      :      0.05s CPU      0.10s WALL (       1 calls)
     hinit0       :      0.46s CPU      0.59s WALL (       1 calls)

     Called by electrons:
     c_bands      :    710.48s CPU    854.53s WALL (      24 calls)
     sum_band     :     42.88s CPU     53.06s WALL (      24 calls)
     v_of_rho     :      1.56s CPU      1.79s WALL (      24 calls)
     mix_rho      :      0.54s CPU      0.63s WALL (      24 calls)
     energy_londo :      0.05s CPU      0.05s WALL (       1 calls)

     Called by c_bands:
     init_us_2    :      9.27s CPU      9.37s WALL (     153 calls)
     init_us_2:cp :      9.26s CPU      9.37s WALL (     153 calls)
     cegterg      :    677.85s CPU    809.21s WALL (      72 calls)

     Called by *egterg:
     cdiaghg      :     45.65s CPU    115.48s WALL (     450 calls)
     h_psi        :    391.80s CPU    425.72s WALL (     456 calls)
     g_psi        :      1.62s CPU      1.65s WALL (     381 calls)

     Called by h_psi:
     h_psi:calbec :    100.56s CPU    106.61s WALL (     456 calls)
     vloc_psi     :    199.19s CPU    225.86s WALL (     456 calls)
     add_vuspsi   :     87.96s CPU     88.56s WALL (     456 calls)

     General routines
     calbec       :    107.81s CPU    117.28s WALL (     471 calls)
     fft          :      1.21s CPU      1.50s WALL (     265 calls)
     ffts         :      0.07s CPU      0.10s WALL (      24 calls)
     fftw         :    206.48s CPU    234.47s WALL (  189128 calls)
 
     Parallel routines
     fft_scatt_xy :     27.36s CPU     30.61s WALL (  189417 calls)
     fft_scatt_yz :    114.12s CPU    131.59s WALL (  189417 calls)
 
     PWSCF        :  14m53.71s CPU  17m49.64s WALL

 
   This run was terminated on:  17:26:36   5Nov2024            

=------------------------------------------------------------------------------=
   JOB DONE.
=------------------------------------------------------------------------------=
