
     Program PWSCF v.7.3 starts on  5Nov2024 at 17:45:29 

     This program is part of the open-source Quantum ESPRESSO suite
     for quantum simulation of materials; please cite
         "P. Giannozzi et al., J. Phys.:Condens. Matter 21 395502 (2009);
         "P. Giannozzi et al., J. Phys.:Condens. Matter 29 465901 (2017);
         "P. Giannozzi et al., J. Chem. Phys. 152 154105 (2020);
          URL http://www.quantum-espresso.org", 
     in publications or presentations arising from this work. More details at
     http://www.quantum-espresso.org/quote

     Parallel version (MPI & OpenMP), running on     256 processor cores
     Number of MPI processes:               256
     Threads/MPI process:                     1

     MPI processes distributed on     1 nodes
     481090 MiB available memory on the printing compute node when the environment starts
 
     Waiting for input...
     Reading input from standard input

     Current dimensions of program PWSCF are:
     Max number of different atomic species (ntypx) = 10
     Max number of k-points (npk) =  40000
     Max angular momentum in pseudopotentials (lmaxx) =  4
 
     K-points division:     npool     =       4
     R & G space division:  proc/nbgrp/npool/nimage =      64
     Subspace diagonalization in iterative solution of the eigenvalue problem:
     one sub-group per band group will be used
     scalapack distributed-memory algorithm (size of sub-group:  4*  4 procs)

 
     Parallelization info
     --------------------
     sticks:   dense  smooth     PW     G-vecs:    dense   smooth      PW
     Min         125     125     32                11593    11593    1534
     Max         126     126     33                11602    11602    1543
     Sum        8017    8017   2077               742111   742111   98351
 
     Using Pencil Decomposition
 


     bravais-lattice index     =            0
     lattice parameter (alat)  =      19.0724  a.u.
     unit-cell volume          =    7676.9593 (a.u.)^3
     number of atoms/cell      =           54
     number of atomic types    =            2
     number of electrons       =       828.00
     number of Kohn-Sham states=          414
     kinetic-energy cutoff     =      80.0000  Ry
     charge density cutoff     =     320.0000  Ry
     scf convergence threshold =      1.0E-10
     mixing beta               =       0.5000
     number of iterations used =            8  plain     mixing
     Exchange-correlation= PBE
                           (   1   4   3   4   0   0   0)

     celldm(1)=  19.072350  celldm(2)=   0.000000  celldm(3)=   0.000000
     celldm(4)=   0.000000  celldm(5)=   0.000000  celldm(6)=   0.000000

     crystal axes: (cart. coord. in units of alat)
               a(1) = (   1.000000   0.000000   0.000000 )  
               a(2) = (  -0.500000   0.866025   0.000000 )  
               a(3) = (   0.000000   0.000000   1.277750 )  

     reciprocal axes: (cart. coord. in units 2 pi/alat)
               b(1) = (  1.000000  0.577350  0.000000 )  
               b(2) = (  0.000000  1.154701  0.000000 )  
               b(3) = (  0.000000  0.000000  0.782626 )  


     PseudoPot. # 1 for W  read from file:
     /users/rkarkee/pbe_pseudo/W.upf
     MD5 check sum: cb94e439a9e4ea809831d6e90c63864e
     Pseudo is Norm-conserving + core correction, Zval = 14.0
     Generated using ONCVPSP code by D. R. Hamann
     Using radial grid of 1396 points,  8 beta functions with: 
                l(1) =   0
                l(2) =   0
                l(3) =   1
                l(4) =   1
                l(5) =   2
                l(6) =   2
                l(7) =   3
                l(8) =   3

     PseudoPot. # 2 for Se read from file:
     /users/rkarkee/pbe_pseudo/Se.upf
     MD5 check sum: 3cc46b3642295b3f4fdae63b742ce36d
     Pseudo is Norm-conserving + core correction, Zval = 16.0
     Generated using ONCVPSP code by D. R. Hamann
     Using radial grid of 1214 points,  6 beta functions with: 
                l(1) =   0
                l(2) =   0
                l(3) =   1
                l(4) =   1
                l(5) =   2
                l(6) =   2

     atomic species   valence    mass     pseudopotential
     W                14.00   183.84000     W ( 1.00)
     Se               16.00    78.96000     Se( 1.00)

     No symmetry found



   Cartesian axes

     site n.     atom                  positions (alat units)
         1        W      tau(   1) = (  -0.0000000   0.1924501   0.9583127  )
         2        W      tau(   2) = (   0.3333333   0.1924501   0.9583127  )
         3        W      tau(   3) = (   0.6666667   0.1924501   0.9583127  )
         4        W      tau(   4) = (  -0.1666667   0.4811252   0.9583127  )
         5        W      tau(   5) = (   0.1666667   0.4811252   0.9583127  )
         6        W      tau(   6) = (   0.5000000   0.4811252   0.9583127  )
         7        W      tau(   7) = (  -0.3333333   0.7698004   0.9583127  )
         8        W      tau(   8) = (   0.0000000   0.7698004   0.9583127  )
         9        W      tau(   9) = (   0.3333333   0.7698004   0.9583127  )
        10        W      tau(  10) = (   0.1666667   0.0962250   0.3194376  )
        11        W      tau(  11) = (   0.5000000   0.0962250   0.3194376  )
        12        W      tau(  12) = (   0.8333333   0.0962250   0.3194376  )
        13        W      tau(  13) = (  -0.0000000   0.3849002   0.3194376  )
        14        W      tau(  14) = (   0.3333333   0.3849002   0.3194376  )
        15        W      tau(  15) = (   0.6666667   0.3849002   0.3194376  )
        16        W      tau(  16) = (  -0.1666667   0.6735753   0.3194376  )
        17        W      tau(  17) = (   0.1666667   0.6735753   0.3194376  )
        18        W      tau(  18) = (   0.5000000   0.6735753   0.3194376  )
        19        Se     tau(  19) = (  -0.0006463   0.1924501   0.1545353  )
        20        Se     tau(  20) = (   0.3333333   0.1924501   0.1553611  )
        21        Se     tau(  21) = (   0.6666667   0.1924501   0.1553611  )
        22        Se     tau(  22) = (  -0.1666667   0.4811252   0.1553611  )
        23        Se     tau(  23) = (   0.1666667   0.4811252   0.1553611  )
        24        Se     tau(  24) = (   0.5000000   0.4811252   0.1553611  )
        25        Se     tau(  25) = (  -0.3333333   0.7698004   0.1553611  )
        26        Se     tau(  26) = (   0.0000000   0.7698004   0.1553611  )
        27        Se     tau(  27) = (   0.3333333   0.7698004   0.1553611  )
        28        Se     tau(  28) = (   0.1666667   0.0962250   1.1223892  )
        29        Se     tau(  29) = (   0.5000000   0.0962250   1.1223892  )
        30        Se     tau(  30) = (   0.8333333   0.0962250   1.1223892  )
        31        Se     tau(  31) = (  -0.0000000   0.3849002   1.1223892  )
        32        Se     tau(  32) = (   0.3333333   0.3849002   1.1223892  )
        33        Se     tau(  33) = (   0.6666667   0.3849002   1.1223892  )
        34        Se     tau(  34) = (  -0.1666667   0.6735753   1.1223892  )
        35        Se     tau(  35) = (   0.1666667   0.6735753   1.1223892  )
        36        Se     tau(  36) = (   0.5000000   0.6735753   1.1223892  )
        37        Se     tau(  37) = (   0.1666667   0.0962250   0.7942362  )
        38        Se     tau(  38) = (   0.5000000   0.0962250   0.7942362  )
        39        Se     tau(  39) = (   0.8333333   0.0962250   0.7942362  )
        40        Se     tau(  40) = (  -0.0000000   0.3849002   0.7942362  )
        41        Se     tau(  41) = (   0.3333333   0.3849002   0.7942362  )
        42        Se     tau(  42) = (   0.6666667   0.3849002   0.7942362  )
        43        Se     tau(  43) = (  -0.1666667   0.6735753   0.7942362  )
        44        Se     tau(  44) = (   0.1666667   0.6735753   0.7942362  )
        45        Se     tau(  45) = (   0.5000000   0.6735753   0.7942362  )
        46        Se     tau(  46) = (  -0.0000000   0.1924501   0.4835141  )
        47        Se     tau(  47) = (   0.3333333   0.1924501   0.4835141  )
        48        Se     tau(  48) = (   0.6666667   0.1924501   0.4835141  )
        49        Se     tau(  49) = (  -0.1666667   0.4811252   0.4835141  )
        50        Se     tau(  50) = (   0.1666667   0.4811252   0.4835141  )
        51        Se     tau(  51) = (   0.5000000   0.4811252   0.4835141  )
        52        Se     tau(  52) = (  -0.3333333   0.7698004   0.4835141  )
        53        Se     tau(  53) = (   0.0000000   0.7698004   0.4835141  )
        54        Se     tau(  54) = (   0.3333333   0.7698004   0.4835141  )

     -------------------------------------------------
     Parameters for Dispersion (Grimme-D2) Correction:
     -------------------------------------------------
       atom      VdW radius       C_6     

        W          3.349       2818.308
        Se         3.347        438.498

     number of k points=    12
                       cart. coord. in units 2pi/alat
        k(    1) = (   0.2500000   0.4330127   0.1956564), wk =   0.1666667
        k(    2) = (   0.2500000  -0.1443376   0.1956564), wk =   0.1666667
        k(    3) = (  -0.2500000  -0.4330127   0.1956564), wk =   0.1666667
        k(    4) = (  -0.2500000   0.4330127  -0.1956564), wk =   0.1666667
        k(    5) = (   0.2500000  -0.4330127  -0.1956564), wk =   0.1666667
        k(    6) = (   0.5000000  -0.0000000   0.1956564), wk =   0.1666667
        k(    7) = (  -0.5000000   0.0000000   0.1956564), wk =   0.1666667
        k(    8) = (  -0.2500000   0.1443376   0.1956564), wk =   0.1666667
        k(    9) = (  -0.2500000  -0.1443376  -0.1956564), wk =   0.1666667
        k(   10) = (   0.2500000   0.1443376  -0.1956564), wk =   0.1666667
        k(   11) = (   0.0000000  -0.2886751   0.1956564), wk =   0.1666667
        k(   12) = (   0.0000000   0.2886751   0.1956564), wk =   0.1666667

     Dense  grid:   742111 G-vectors     FFT dimensions: ( 120, 120, 144)

     Estimated max dynamical RAM per process >     125.02 MB

     Estimated total dynamical RAM >      30.72 GB

     Initial potential from superposition of free atoms

     starting charge     827.9882, renormalised to     828.0000
     Starting wfcs are  504 randomized atomic wfcs

     total cpu time spent up to now is       13.1 secs

     Self-consistent Calculation

     iteration #  1     ecut=    80.00 Ry     beta= 0.50
     Davidson diagonalization with overlap
     ethr =  1.00E-02,  avg # of iterations =  2.0

     Threshold (ethr) on eigenvalues was too large:
     Diagonalizing with lowered threshold

     Davidson diagonalization with overlap
     ethr =  8.62E-05,  avg # of iterations =  5.5

     total cpu time spent up to now is       94.5 secs

     total energy              =  -11463.61857417 Ry
     estimated scf accuracy    <       1.08383231 Ry

     iteration #  2     ecut=    80.00 Ry     beta= 0.50
     Davidson diagonalization with overlap
     ethr =  1.31E-04,  avg # of iterations =  2.0

     total cpu time spent up to now is      125.9 secs

     total energy              =  -11463.73468660 Ry
     estimated scf accuracy    <       0.15541931 Ry

     iteration #  3     ecut=    80.00 Ry     beta= 0.50
     Davidson diagonalization with overlap
     ethr =  1.88E-05,  avg # of iterations =  6.2

     total cpu time spent up to now is      171.7 secs

     total energy              =  -11463.74891591 Ry
     estimated scf accuracy    <       0.14774872 Ry

     iteration #  4     ecut=    80.00 Ry     beta= 0.50
     Davidson diagonalization with overlap
     ethr =  1.78E-05,  avg # of iterations =  5.6

     total cpu time spent up to now is      206.8 secs

     total energy              =  -11463.77271614 Ry
     estimated scf accuracy    <       0.00571706 Ry

     iteration #  5     ecut=    80.00 Ry     beta= 0.50
     Davidson diagonalization with overlap
     ethr =  6.90E-07,  avg # of iterations =  9.0

     total cpu time spent up to now is      258.0 secs

     total energy              =  -11463.77406733 Ry
     estimated scf accuracy    <       0.01122994 Ry

     iteration #  6     ecut=    80.00 Ry     beta= 0.50
     Davidson diagonalization with overlap
     ethr =  6.90E-07,  avg # of iterations =  5.0

     total cpu time spent up to now is      292.5 secs

     total energy              =  -11463.77351162 Ry
     estimated scf accuracy    <       0.00367899 Ry

     iteration #  7     ecut=    80.00 Ry     beta= 0.50
     Davidson diagonalization with overlap
     ethr =  4.44E-07,  avg # of iterations =  8.0

     total cpu time spent up to now is      341.2 secs

     total energy              =  -11463.77457355 Ry
     estimated scf accuracy    <       0.00879901 Ry

     iteration #  8     ecut=    80.00 Ry     beta= 0.50
     Davidson diagonalization with overlap
     ethr =  4.44E-07,  avg # of iterations =  5.5

     total cpu time spent up to now is      376.3 secs

     total energy              =  -11463.77435283 Ry
     estimated scf accuracy    <       0.00250160 Ry

     iteration #  9     ecut=    80.00 Ry     beta= 0.50
     Davidson diagonalization with overlap
     ethr =  3.02E-07,  avg # of iterations =  5.6

     total cpu time spent up to now is      414.9 secs

     total energy              =  -11463.77482830 Ry
     estimated scf accuracy    <       0.00002482 Ry

     iteration # 10     ecut=    80.00 Ry     beta= 0.50
     Davidson diagonalization with overlap
     ethr =  3.00E-09,  avg # of iterations =  7.5

     total cpu time spent up to now is      462.5 secs

     total energy              =  -11463.77485072 Ry
     estimated scf accuracy    <       0.00001347 Ry

     iteration # 11     ecut=    80.00 Ry     beta= 0.50
     Davidson diagonalization with overlap
     ethr =  1.63E-09,  avg # of iterations =  6.5

     total cpu time spent up to now is      499.0 secs

     total energy              =  -11463.77485215 Ry
     estimated scf accuracy    <       0.00000274 Ry

     iteration # 12     ecut=    80.00 Ry     beta= 0.50
     Davidson diagonalization with overlap
     ethr =  3.31E-10,  avg # of iterations =  7.0

     total cpu time spent up to now is      538.0 secs

     total energy              =  -11463.77485253 Ry
     estimated scf accuracy    <       0.00000117 Ry

     iteration # 13     ecut=    80.00 Ry     beta= 0.50
     Davidson diagonalization with overlap
     ethr =  1.42E-10,  avg # of iterations =  6.5

     total cpu time spent up to now is      574.0 secs

     total energy              =  -11463.77485239 Ry
     estimated scf accuracy    <       0.00000095 Ry

     iteration # 14     ecut=    80.00 Ry     beta= 0.50
     Davidson diagonalization with overlap
     ethr =  1.15E-10,  avg # of iterations =  6.0

     total cpu time spent up to now is      610.6 secs

     total energy              =  -11463.77485256 Ry
     estimated scf accuracy    <       0.00000009 Ry

     iteration # 15     ecut=    80.00 Ry     beta= 0.50
     Davidson diagonalization with overlap
     ethr =  1.07E-11,  avg # of iterations =  8.5

     total cpu time spent up to now is      659.6 secs

     total energy              =  -11463.77485257 Ry
     estimated scf accuracy    <       0.00000039 Ry

     iteration # 16     ecut=    80.00 Ry     beta= 0.50
     Davidson diagonalization with overlap
     ethr =  1.07E-11,  avg # of iterations =  6.5

     total cpu time spent up to now is      696.3 secs

     total energy              =  -11463.77485256 Ry
     estimated scf accuracy    <       0.00000016 Ry

     iteration # 17     ecut=    80.00 Ry     beta= 0.50
     Davidson diagonalization with overlap
     ethr =  1.07E-11,  avg # of iterations =  5.0

     total cpu time spent up to now is      731.0 secs

     total energy              =  -11463.77485256 Ry
     estimated scf accuracy    <       0.00000002 Ry

     iteration # 18     ecut=    80.00 Ry     beta= 0.50
     Davidson diagonalization with overlap
     ethr =  2.97E-12,  avg # of iterations =  6.0

     total cpu time spent up to now is      776.6 secs

     total energy              =  -11463.77485257 Ry
     estimated scf accuracy    <       0.00000004 Ry

     iteration # 19     ecut=    80.00 Ry     beta= 0.50
     Davidson diagonalization with overlap
     ethr =  2.97E-12,  avg # of iterations =  3.0

     total cpu time spent up to now is      807.7 secs

     total energy              =  -11463.77485257 Ry
     estimated scf accuracy    <       0.00000001 Ry

     iteration # 20     ecut=    80.00 Ry     beta= 0.50
     Davidson diagonalization with overlap
     ethr =  1.34E-12,  avg # of iterations =  5.5

     total cpu time spent up to now is      846.5 secs

     total energy              =  -11463.77485257 Ry
     estimated scf accuracy    <          2.2E-09 Ry

     iteration # 21     ecut=    80.00 Ry     beta= 0.50
     Davidson diagonalization with overlap
     ethr =  2.66E-13,  avg # of iterations =  4.5

     total cpu time spent up to now is      879.0 secs

     total energy              =  -11463.77485257 Ry
     estimated scf accuracy    <          1.3E-09 Ry

     iteration # 22     ecut=    80.00 Ry     beta= 0.50
     Davidson diagonalization with overlap
     ethr =  1.54E-13,  avg # of iterations =  6.0

     total cpu time spent up to now is      910.2 secs

     total energy              =  -11463.77485257 Ry
     estimated scf accuracy    <          3.9E-10 Ry

     iteration # 23     ecut=    80.00 Ry     beta= 0.50
     Davidson diagonalization with overlap
     ethr =  1.00E-13,  avg # of iterations =  6.0

     total cpu time spent up to now is      943.3 secs

     End of self-consistent calculation

          k = 0.2500 0.4330 0.1957 ( 92753 PWs)   bands (ev):

   -61.7362 -61.7360 -61.7346 -61.7345 -61.7345 -61.7342 -61.7318 -61.7314
   -61.7313 -61.7310 -61.7304 -61.7302 -61.7302 -61.7302 -61.7300 -61.7298
   -61.7295 -61.7293 -35.2196 -35.2196 -35.2195 -35.2194 -35.2194 -35.2193
   -35.2192 -35.2192 -35.2192 -35.2192 -35.2192 -35.2191 -35.2191 -35.2190
   -35.2190 -35.2189 -35.2189 -35.2189 -35.2188 -35.2188 -35.2187 -35.2187
   -35.2187 -35.2187 -35.2186 -35.2186 -35.2186 -35.2185 -35.2184 -35.2183
   -35.2183 -35.2183 -35.2183 -35.2183 -35.2182 -35.2181 -35.2181 -35.2180
   -35.2179 -35.2178 -35.2178 -35.2178 -35.2177 -35.2176 -35.2175 -35.2173
   -35.2171 -35.2171 -35.2170 -35.2169 -35.2169 -35.2168 -35.2168 -35.2167
   -35.2165 -35.2165 -35.2163 -35.2163 -35.2163 -35.2163 -35.2163 -35.2162
   -35.2161 -35.2160 -35.2160 -35.2160 -35.2158 -35.2156 -35.2155 -35.2154
   -35.2132 -35.2132 -35.1814 -35.1814 -35.1812 -35.1812 -35.1811 -35.1811
   -35.1810 -35.1810 -35.1810 -35.1809 -35.1808 -35.1808 -35.1807 -35.1806
   -35.1806 -35.1806 -35.1805 -35.1805 -35.1805 -35.1805 -35.1804 -35.1804
   -35.1803 -35.1803 -35.1803 -35.1803 -35.1803 -35.1802 -35.1802 -35.1802
   -35.1801 -35.1801 -35.1801 -35.1801 -35.1800 -35.1800 -35.1799 -35.1799
   -35.1798 -35.1798 -35.1798 -35.1797 -35.1797 -35.1796 -35.1796 -35.1796
   -35.1796 -35.1795 -35.1795 -35.1795 -35.1794 -35.1794 -35.1793 -35.1793
   -35.1793 -35.1793 -35.1792 -35.1791 -35.1791 -35.1790 -35.1790 -35.1789
   -35.1789 -35.1788 -35.1788 -35.1787 -35.1786 -35.1785 -35.1785 -35.1784
   -35.1768 -35.1764 -35.1649 -35.1646 -35.1645 -35.1644 -35.1641 -35.1640
   -35.1639 -35.1639 -35.1638 -35.1636 -35.1636 -35.1636 -35.1635 -35.1634
   -35.1632 -35.1631 -35.1630 -35.1627 -35.1624 -35.1621 -35.1620 -35.1618
   -35.1615 -35.1614 -35.1613 -35.1613 -35.1612 -35.1610 -35.1610 -35.1610
   -35.1608 -35.1607 -35.1606 -35.1604 -35.1604 -35.1593 -26.0361 -26.0361
   -26.0357 -26.0355 -26.0280 -26.0275 -26.0093 -26.0089 -25.9979 -25.9979
   -25.9975 -25.9973 -25.9376 -25.9371 -25.9336 -25.9336 -25.9333 -25.9331
   -25.9316 -25.9313 -25.9208 -25.9205 -25.9134 -25.9134 -25.9132 -25.9129
   -25.9126 -25.9126 -25.9126 -25.9121 -25.9103 -25.9103 -25.9099 -25.9098
   -25.8963 -25.8963 -25.8962 -25.8958 -25.8955 -25.8951 -25.8905 -25.8903
   -25.8903 -25.8902 -25.8900 -25.8896 -25.8881 -25.8878 -25.8804 -25.8804
   -25.8801 -25.8800 -25.8695 -25.8691  -2.0519  -1.8865  -1.7084  -1.7070
    -1.5502  -1.5486  -0.9640  -0.8945  -0.8933  -0.7851  -0.7845  -0.7738
    -0.7723  -0.7005  -0.5517  -0.5510  -0.5353  -0.5063  -0.5049  -0.4486
    -0.4297  -0.4281  -0.3718  -0.3667  -0.3659  -0.3146  -0.2197  -0.2189
    -0.1832  -0.1812  -0.1806  -0.1065  -0.1017  -0.1011  -0.0864  -0.0491
     6.2471   6.2479   6.3002   6.4451   6.4460   6.4713   6.6474   6.7143
     6.7151   6.9362   6.9936   7.0364   7.0372   7.0411   7.1897   7.1906
     7.3122   7.3514   7.3995   7.4003   7.4103   7.4114   7.4565   7.4570
     7.5108   7.6278   7.7960   7.7970   7.9155   7.9162   8.0750   8.0760
     8.1347   8.1531   8.1543   8.2129   8.3344   8.3497   8.3502   8.3661
     8.3662   8.4266   8.4268   8.5152   8.5473   8.5489   8.8859   8.9576
     8.9585   8.9826   8.9831   9.1029   9.1194   9.1278   9.1503   9.2491
     9.2723   9.2731   9.3063   9.3228   9.3236   9.3308   9.3690   9.3698
     9.4057   9.4377   9.4378   9.5762   9.7963   9.8525   9.8538   9.8960
     9.8970   9.9928   9.9940   9.9956   9.9964  10.1026  10.1718  10.1923
    10.2379  10.2895  10.2906  10.4006  10.4011  10.4334  10.4371  10.4377
    10.4449  10.4458  10.4657  10.5069  10.5077  10.5829  10.5836  10.6703
    10.7015  10.7023  10.7827  10.7835  10.8783  10.8794  11.0073  11.0093
    11.0821  11.3935  11.3946  11.5004  11.6485  11.6491  11.6577  11.6587
    11.6740  11.6746  11.7595  11.7605  11.7749  11.7757  11.8118  11.8126
    11.8235  11.8926  11.9022  12.0719  12.1234  12.2678

          k = 0.2500-0.1443 0.1957 ( 92754 PWs)   bands (ev):

   -61.7370 -61.7369 -61.7341 -61.7338 -61.7327 -61.7327 -61.7327 -61.7325
   -61.7313 -61.7311 -61.7311 -61.7308 -61.7307 -61.7303 -61.7296 -61.7296
   -61.7293 -61.7291 -35.2197 -35.2196 -35.2195 -35.2195 -35.2195 -35.2194
   -35.2194 -35.2194 -35.2194 -35.2193 -35.2192 -35.2191 -35.2191 -35.2191
   -35.2190 -35.2190 -35.2189 -35.2189 -35.2189 -35.2189 -35.2188 -35.2188
   -35.2188 -35.2187 -35.2186 -35.2186 -35.2186 -35.2186 -35.2185 -35.2185
   -35.2184 -35.2183 -35.2182 -35.2181 -35.2179 -35.2179 -35.2178 -35.2178
   -35.2177 -35.2175 -35.2175 -35.2174 -35.2174 -35.2172 -35.2172 -35.2171
   -35.2171 -35.2169 -35.2169 -35.2169 -35.2168 -35.2168 -35.2168 -35.2167
   -35.2167 -35.2167 -35.2165 -35.2164 -35.2164 -35.2164 -35.2163 -35.2163
   -35.2163 -35.2162 -35.2161 -35.2161 -35.2159 -35.2159 -35.2157 -35.2155
   -35.2133 -35.2132 -35.1816 -35.1816 -35.1811 -35.1811 -35.1810 -35.1810
   -35.1809 -35.1809 -35.1808 -35.1808 -35.1807 -35.1807 -35.1807 -35.1807
   -35.1806 -35.1806 -35.1805 -35.1805 -35.1805 -35.1804 -35.1804 -35.1804
   -35.1803 -35.1803 -35.1803 -35.1803 -35.1802 -35.1802 -35.1802 -35.1802
   -35.1802 -35.1801 -35.1801 -35.1800 -35.1800 -35.1800 -35.1799 -35.1799
   -35.1799 -35.1799 -35.1798 -35.1798 -35.1797 -35.1797 -35.1797 -35.1797
   -35.1796 -35.1796 -35.1795 -35.1794 -35.1794 -35.1793 -35.1793 -35.1793
   -35.1793 -35.1792 -35.1792 -35.1792 -35.1791 -35.1791 -35.1790 -35.1789
   -35.1789 -35.1788 -35.1786 -35.1786 -35.1786 -35.1785 -35.1784 -35.1783
   -35.1768 -35.1764 -35.1651 -35.1645 -35.1644 -35.1642 -35.1642 -35.1639
   -35.1639 -35.1638 -35.1638 -35.1637 -35.1636 -35.1636 -35.1635 -35.1634
   -35.1632 -35.1631 -35.1630 -35.1627 -35.1626 -35.1620 -35.1619 -35.1617
   -35.1616 -35.1613 -35.1613 -35.1613 -35.1611 -35.1611 -35.1609 -35.1609
   -35.1609 -35.1607 -35.1606 -35.1604 -35.1604 -35.1593 -26.0307 -26.0302
   -26.0146 -26.0146 -26.0143 -26.0140 -26.0117 -26.0117 -26.0115 -26.0111
   -25.9772 -25.9772 -25.9769 -25.9766 -25.9556 -25.9556 -25.9552 -25.9551
   -25.9525 -25.9520 -25.9255 -25.9252 -25.9091 -25.9089 -25.9040 -25.9040
   -25.9037 -25.9035 -25.9032 -25.9032 -25.9029 -25.9029 -25.9007 -25.9003
   -25.8950 -25.8950 -25.8948 -25.8947 -25.8931 -25.8931 -25.8928 -25.8927
   -25.8926 -25.8925 -25.8868 -25.8868 -25.8866 -25.8865 -25.8821 -25.8818
   -25.8731 -25.8726 -25.8635 -25.8632  -2.2371  -2.0691  -1.5505  -1.3969
    -1.2618  -1.2604  -1.1197  -1.1181  -1.0608  -0.8113  -0.8101  -0.7823
    -0.7040  -0.6987  -0.6972  -0.6676  -0.5704  -0.5554  -0.5550  -0.4857
    -0.3667  -0.3662  -0.3296  -0.3291  -0.2991  -0.2979  -0.2624  -0.2537
    -0.2521  -0.1970  -0.1964  -0.1546  -0.0627  -0.0621  -0.0157  -0.0149
     6.0658   6.3247   6.5289   6.6504   6.6508   6.8197   6.8506   6.8511
     6.8609   6.8889   6.8897   6.9858   6.9866   7.0603   7.0611   7.2112
     7.2118   7.3309   7.3320   7.4605   7.4608   7.4753   7.5075   7.5858
     7.6777   7.6779   7.6915   7.6929   7.7156   7.7159   7.9682   7.9685
     8.0398   8.0563   8.0825   8.0831   8.1609   8.2504   8.2508   8.4268
     8.4282   8.4881   8.4890   8.5293   8.5299   8.5356   8.6418   8.6421
     8.6677   8.6683   8.7220   8.8438   8.8448   9.0619   9.1734   9.1746
     9.3053   9.3069   9.3254   9.3268   9.4058   9.4428   9.4438   9.4630
     9.4635   9.4796   9.5238   9.6235   9.6432   9.6565   9.6582  10.0090
    10.0146  10.0343  10.0737  10.2193  10.2199  10.2684  10.4294  10.4306
    10.4399  10.4404  10.4530  10.4537  10.5122  10.5128  10.5336  10.5361
    10.5560  10.5575  10.5944  10.6028  10.6216  10.6225  10.6662  10.7470
    10.7472  10.7608  10.7616  10.8369  10.8845  11.0402  11.0427  11.0436
    11.1275  11.1334  11.2383  11.2870  11.4078  11.4246  11.4750  11.4753
    11.5309  11.5328  11.5331  11.5336  11.5339  11.6002  11.6101  11.6104
    12.0681  12.0682  12.2161  12.2163  12.3028  12.6035

          k =-0.2500-0.4330 0.1957 ( 92753 PWs)   bands (ev):

   -61.7362 -61.7360 -61.7346 -61.7345 -61.7345 -61.7342 -61.7318 -61.7314
   -61.7313 -61.7310 -61.7304 -61.7302 -61.7302 -61.7302 -61.7300 -61.7298
   -61.7295 -61.7293 -35.2196 -35.2196 -35.2195 -35.2194 -35.2194 -35.2193
   -35.2192 -35.2192 -35.2192 -35.2192 -35.2192 -35.2191 -35.2191 -35.2190
   -35.2190 -35.2189 -35.2189 -35.2189 -35.2188 -35.2188 -35.2187 -35.2187
   -35.2187 -35.2187 -35.2186 -35.2186 -35.2186 -35.2185 -35.2184 -35.2183
   -35.2183 -35.2183 -35.2183 -35.2183 -35.2182 -35.2181 -35.2181 -35.2180
   -35.2179 -35.2178 -35.2178 -35.2178 -35.2177 -35.2176 -35.2175 -35.2173
   -35.2171 -35.2171 -35.2170 -35.2169 -35.2169 -35.2168 -35.2168 -35.2167
   -35.2165 -35.2165 -35.2163 -35.2163 -35.2163 -35.2163 -35.2163 -35.2162
   -35.2161 -35.2160 -35.2160 -35.2160 -35.2158 -35.2156 -35.2155 -35.2154
   -35.2132 -35.2132 -35.1814 -35.1814 -35.1812 -35.1812 -35.1811 -35.1811
   -35.1810 -35.1810 -35.1810 -35.1809 -35.1808 -35.1808 -35.1807 -35.1807
   -35.1806 -35.1806 -35.1805 -35.1805 -35.1805 -35.1805 -35.1804 -35.1804
   -35.1804 -35.1803 -35.1803 -35.1803 -35.1803 -35.1802 -35.1802 -35.1802
   -35.1801 -35.1801 -35.1801 -35.1800 -35.1800 -35.1800 -35.1799 -35.1799
   -35.1798 -35.1798 -35.1798 -35.1797 -35.1797 -35.1796 -35.1796 -35.1796
   -35.1795 -35.1795 -35.1795 -35.1795 -35.1794 -35.1794 -35.1793 -35.1793
   -35.1793 -35.1793 -35.1792 -35.1791 -35.1791 -35.1790 -35.1790 -35.1789
   -35.1789 -35.1788 -35.1788 -35.1787 -35.1786 -35.1785 -35.1785 -35.1784
   -35.1768 -35.1764 -35.1649 -35.1646 -35.1645 -35.1644 -35.1641 -35.1640
   -35.1639 -35.1639 -35.1638 -35.1636 -35.1636 -35.1636 -35.1635 -35.1634
   -35.1632 -35.1631 -35.1630 -35.1627 -35.1624 -35.1621 -35.1620 -35.1618
   -35.1615 -35.1614 -35.1613 -35.1613 -35.1612 -35.1610 -35.1610 -35.1610
   -35.1608 -35.1607 -35.1606 -35.1604 -35.1604 -35.1593 -26.0361 -26.0361
   -26.0357 -26.0355 -26.0280 -26.0275 -26.0093 -26.0089 -25.9979 -25.9979
   -25.9975 -25.9973 -25.9376 -25.9371 -25.9336 -25.9336 -25.9333 -25.9331
   -25.9316 -25.9313 -25.9208 -25.9205 -25.9134 -25.9134 -25.9132 -25.9129
   -25.9126 -25.9126 -25.9126 -25.9121 -25.9103 -25.9103 -25.9099 -25.9098
   -25.8963 -25.8963 -25.8962 -25.8958 -25.8955 -25.8951 -25.8905 -25.8903
   -25.8903 -25.8902 -25.8900 -25.8896 -25.8881 -25.8878 -25.8804 -25.8804
   -25.8801 -25.8800 -25.8695 -25.8691  -2.0519  -1.8865  -1.7084  -1.7070
    -1.5502  -1.5486  -0.9640  -0.8945  -0.8933  -0.7851  -0.7845  -0.7738
    -0.7723  -0.7005  -0.5517  -0.5510  -0.5353  -0.5063  -0.5049  -0.4486
    -0.4297  -0.4281  -0.3718  -0.3667  -0.3659  -0.3146  -0.2197  -0.2189
    -0.1832  -0.1812  -0.1807  -0.1065  -0.1017  -0.1011  -0.0864  -0.0491
     6.2471   6.2479   6.3002   6.4451   6.4460   6.4713   6.6474   6.7143
     6.7151   6.9363   6.9935   7.0364   7.0372   7.0412   7.1898   7.1905
     7.3122   7.3514   7.3995   7.4003   7.4103   7.4113   7.4564   7.4571
     7.5108   7.6278   7.7959   7.7969   7.9157   7.9162   8.0749   8.0761
     8.1349   8.1530   8.1542   8.2130   8.3342   8.3498   8.3501   8.3661
     8.3662   8.4267   8.4268   8.5150   8.5475   8.5489   8.8860   8.9579
     8.9584   8.9824   8.9831   9.1031   9.1194   9.1278   9.1503   9.2489
     9.2724   9.2729   9.3062   9.3228   9.3237   9.3306   9.3690   9.3699
     9.4058   9.4375   9.4379   9.5761   9.7964   9.8526   9.8538   9.8960
     9.8971   9.9928   9.9939   9.9957   9.9962  10.1027  10.1718  10.1922
    10.2378  10.2895  10.2906  10.4006  10.4011  10.4335  10.4371  10.4377
    10.4449  10.4459  10.4655  10.5071  10.5076  10.5827  10.5837  10.6704
    10.7015  10.7023  10.7828  10.7836  10.8781  10.8794  11.0074  11.0093
    11.0822  11.3934  11.3946  11.5002  11.6486  11.6491  11.6576  11.6588
    11.6740  11.6746  11.7595  11.7605  11.7747  11.7758  11.8118  11.8126
    11.8235  11.8926  11.9022  12.0720  12.1237  12.2677

          k =-0.2500 0.4330-0.1957 ( 92753 PWs)   bands (ev):

   -61.7362 -61.7360 -61.7348 -61.7345 -61.7345 -61.7340 -61.7319 -61.7314
   -61.7313 -61.7309 -61.7306 -61.7302 -61.7302 -61.7302 -61.7298 -61.7298
   -61.7296 -61.7294 -35.2196 -35.2196 -35.2195 -35.2194 -35.2193 -35.2193
   -35.2192 -35.2192 -35.2192 -35.2192 -35.2192 -35.2192 -35.2191 -35.2191
   -35.2190 -35.2190 -35.2189 -35.2188 -35.2188 -35.2188 -35.2187 -35.2187
   -35.2187 -35.2187 -35.2186 -35.2186 -35.2185 -35.2185 -35.2185 -35.2184
   -35.2183 -35.2183 -35.2183 -35.2183 -35.2182 -35.2182 -35.2181 -35.2180
   -35.2179 -35.2178 -35.2178 -35.2178 -35.2177 -35.2176 -35.2175 -35.2173
   -35.2171 -35.2171 -35.2170 -35.2169 -35.2168 -35.2168 -35.2168 -35.2167
   -35.2165 -35.2165 -35.2164 -35.2163 -35.2163 -35.2163 -35.2162 -35.2162
   -35.2161 -35.2160 -35.2160 -35.2160 -35.2158 -35.2157 -35.2155 -35.2154
   -35.2133 -35.2132 -35.1815 -35.1814 -35.1811 -35.1811 -35.1811 -35.1811
   -35.1810 -35.1810 -35.1809 -35.1809 -35.1808 -35.1808 -35.1807 -35.1807
   -35.1806 -35.1806 -35.1805 -35.1805 -35.1805 -35.1805 -35.1804 -35.1804
   -35.1804 -35.1803 -35.1803 -35.1803 -35.1802 -35.1802 -35.1802 -35.1802
   -35.1801 -35.1801 -35.1801 -35.1801 -35.1800 -35.1800 -35.1799 -35.1799
   -35.1798 -35.1798 -35.1798 -35.1797 -35.1797 -35.1796 -35.1796 -35.1796
   -35.1795 -35.1795 -35.1795 -35.1795 -35.1794 -35.1794 -35.1794 -35.1793
   -35.1793 -35.1793 -35.1792 -35.1791 -35.1791 -35.1790 -35.1790 -35.1790
   -35.1789 -35.1788 -35.1787 -35.1787 -35.1786 -35.1785 -35.1785 -35.1784
   -35.1768 -35.1765 -35.1649 -35.1646 -35.1645 -35.1644 -35.1641 -35.1640
   -35.1639 -35.1639 -35.1637 -35.1637 -35.1636 -35.1636 -35.1635 -35.1633
   -35.1632 -35.1630 -35.1630 -35.1627 -35.1624 -35.1621 -35.1620 -35.1618
   -35.1615 -35.1614 -35.1613 -35.1613 -35.1611 -35.1611 -35.1610 -35.1610
   -35.1608 -35.1607 -35.1605 -35.1604 -35.1604 -35.1593 -26.0361 -26.0361
   -26.0357 -26.0355 -26.0280 -26.0275 -26.0093 -26.0088 -25.9979 -25.9979
   -25.9977 -25.9972 -25.9376 -25.9372 -25.9336 -25.9336 -25.9333 -25.9330
   -25.9316 -25.9312 -25.9208 -25.9205 -25.9134 -25.9134 -25.9131 -25.9130
   -25.9126 -25.9126 -25.9126 -25.9121 -25.9103 -25.9103 -25.9101 -25.9097
   -25.8963 -25.8963 -25.8962 -25.8958 -25.8955 -25.8950 -25.8905 -25.8903
   -25.8903 -25.8902 -25.8900 -25.8896 -25.8881 -25.8878 -25.8804 -25.8804
   -25.8801 -25.8799 -25.8695 -25.8692  -2.0520  -1.8865  -1.7084  -1.7070
    -1.5502  -1.5485  -0.9640  -0.8945  -0.8931  -0.7851  -0.7845  -0.7738
    -0.7722  -0.7005  -0.5517  -0.5511  -0.5354  -0.5063  -0.5052  -0.4487
    -0.4297  -0.4284  -0.3716  -0.3667  -0.3661  -0.3145  -0.2197  -0.2191
    -0.1832  -0.1812  -0.1804  -0.1066  -0.1017  -0.1008  -0.0862  -0.0494
     6.2473   6.2479   6.3002   6.4454   6.4460   6.4711   6.6471   6.7144
     6.7150   6.9363   6.9937   7.0366   7.0369   7.0411   7.1897   7.1903
     7.3125   7.3515   7.3994   7.4001   7.4103   7.4114   7.4564   7.4568
     7.5105   7.6275   7.7964   7.7969   7.9156   7.9161   8.0750   8.0755
     8.1352   8.1531   8.1547   8.2128   8.3344   8.3497   8.3506   8.3661
     8.3664   8.4265   8.4271   8.5154   8.5477   8.5483   8.8862   8.9577
     8.9583   8.9823   8.9835   9.1032   9.1192   9.1278   9.1500   9.2493
     9.2724   9.2731   9.3067   9.3228   9.3234   9.3306   9.3689   9.3700
     9.4053   9.4372   9.4388   9.5762   9.7963   9.8523   9.8539   9.8962
     9.8967   9.9930   9.9935   9.9953   9.9965  10.1035  10.1720  10.1925
    10.2372  10.2900  10.2907  10.4007  10.4010  10.4327  10.4372  10.4376
    10.4450  10.4458  10.4658  10.5066  10.5069  10.5829  10.5835  10.6701
    10.7013  10.7022  10.7820  10.7837  10.8787  10.8792  11.0076  11.0089
    11.0825  11.3937  11.3945  11.5004  11.6484  11.6490  11.6581  11.6590
    11.6737  11.6744  11.7594  11.7605  11.7748  11.7755  11.8118  11.8128
    11.8236  11.8924  11.9023  12.0718  12.1236  12.2681

          k = 0.2500-0.4330-0.1957 ( 92753 PWs)   bands (ev):

   -61.7362 -61.7360 -61.7348 -61.7345 -61.7345 -61.7340 -61.7319 -61.7314
   -61.7313 -61.7309 -61.7306 -61.7302 -61.7302 -61.7302 -61.7298 -61.7298
   -61.7296 -61.7294 -35.2196 -35.2196 -35.2195 -35.2194 -35.2193 -35.2193
   -35.2192 -35.2192 -35.2192 -35.2192 -35.2192 -35.2192 -35.2191 -35.2191
   -35.2190 -35.2190 -35.2189 -35.2188 -35.2188 -35.2188 -35.2187 -35.2187
   -35.2187 -35.2187 -35.2186 -35.2186 -35.2185 -35.2185 -35.2185 -35.2184
   -35.2183 -35.2183 -35.2183 -35.2183 -35.2182 -35.2182 -35.2181 -35.2180
   -35.2179 -35.2178 -35.2178 -35.2178 -35.2177 -35.2176 -35.2175 -35.2173
   -35.2171 -35.2171 -35.2170 -35.2169 -35.2168 -35.2168 -35.2168 -35.2167
   -35.2165 -35.2165 -35.2164 -35.2163 -35.2163 -35.2163 -35.2162 -35.2162
   -35.2161 -35.2160 -35.2160 -35.2160 -35.2158 -35.2157 -35.2155 -35.2154
   -35.2133 -35.2132 -35.1814 -35.1814 -35.1812 -35.1811 -35.1811 -35.1811
   -35.1810 -35.1810 -35.1809 -35.1809 -35.1808 -35.1808 -35.1807 -35.1807
   -35.1806 -35.1806 -35.1805 -35.1805 -35.1805 -35.1805 -35.1804 -35.1804
   -35.1804 -35.1803 -35.1803 -35.1803 -35.1803 -35.1802 -35.1802 -35.1802
   -35.1801 -35.1801 -35.1801 -35.1801 -35.1800 -35.1800 -35.1799 -35.1799
   -35.1798 -35.1798 -35.1798 -35.1797 -35.1797 -35.1796 -35.1796 -35.1796
   -35.1796 -35.1795 -35.1795 -35.1795 -35.1794 -35.1794 -35.1793 -35.1793
   -35.1793 -35.1793 -35.1792 -35.1791 -35.1791 -35.1790 -35.1790 -35.1789
   -35.1789 -35.1788 -35.1787 -35.1787 -35.1786 -35.1785 -35.1785 -35.1784
   -35.1768 -35.1765 -35.1649 -35.1646 -35.1645 -35.1644 -35.1641 -35.1640
   -35.1639 -35.1639 -35.1637 -35.1637 -35.1636 -35.1636 -35.1635 -35.1633
   -35.1632 -35.1630 -35.1630 -35.1627 -35.1624 -35.1621 -35.1620 -35.1618
   -35.1615 -35.1614 -35.1613 -35.1613 -35.1611 -35.1611 -35.1610 -35.1610
   -35.1608 -35.1607 -35.1605 -35.1604 -35.1604 -35.1593 -26.0361 -26.0361
   -26.0357 -26.0355 -26.0280 -26.0275 -26.0093 -26.0088 -25.9979 -25.9979
   -25.9977 -25.9972 -25.9376 -25.9372 -25.9336 -25.9336 -25.9333 -25.9330
   -25.9316 -25.9312 -25.9208 -25.9205 -25.9134 -25.9134 -25.9131 -25.9130
   -25.9126 -25.9126 -25.9126 -25.9121 -25.9103 -25.9103 -25.9101 -25.9097
   -25.8963 -25.8963 -25.8962 -25.8958 -25.8955 -25.8950 -25.8905 -25.8903
   -25.8903 -25.8902 -25.8900 -25.8896 -25.8881 -25.8878 -25.8804 -25.8804
   -25.8801 -25.8799 -25.8695 -25.8692  -2.0520  -1.8865  -1.7084  -1.7070
    -1.5502  -1.5485  -0.9640  -0.8945  -0.8931  -0.7851  -0.7845  -0.7738
    -0.7721  -0.7005  -0.5517  -0.5511  -0.5354  -0.5063  -0.5053  -0.4487
    -0.4297  -0.4284  -0.3716  -0.3667  -0.3661  -0.3145  -0.2197  -0.2191
    -0.1832  -0.1812  -0.1805  -0.1066  -0.1017  -0.1008  -0.0862  -0.0494
     6.2473   6.2479   6.3002   6.4454   6.4460   6.4711   6.6471   6.7144
     6.7150   6.9363   6.9936   7.0366   7.0369   7.0412   7.1897   7.1903
     7.3125   7.3516   7.3995   7.4001   7.4103   7.4113   7.4563   7.4569
     7.5104   7.6276   7.7963   7.7969   7.9158   7.9161   8.0750   8.0753
     8.1353   8.1531   8.1547   8.2129   8.3343   8.3497   8.3506   8.3660
     8.3664   8.4266   8.4271   8.5152   8.5478   8.5484   8.8864   8.9577
     8.9585   8.9823   8.9833   9.1034   9.1193   9.1278   9.1500   9.2491
     9.2724   9.2729   9.3066   9.3228   9.3235   9.3304   9.3689   9.3701
     9.4054   9.4372   9.4387   9.5761   9.7965   9.8522   9.8540   9.8962
     9.8968   9.9930   9.9934   9.9952   9.9964  10.1035  10.1720  10.1925
    10.2371  10.2900  10.2906  10.4007  10.4010  10.4328  10.4371  10.4376
    10.4448  10.4460  10.4657  10.5066  10.5069  10.5828  10.5835  10.6703
    10.7013  10.7022  10.7822  10.7837  10.8786  10.8792  11.0076  11.0090
    11.0826  11.3936  11.3946  11.5003  11.6485  11.6489  11.6580  11.6591
    11.6737  11.6744  11.7596  11.7603  11.7746  11.7755  11.8119  11.8128
    11.8236  11.8924  11.9023  12.0718  12.1238  12.2680

          k = 0.5000-0.0000 0.1957 ( 92753 PWs)   bands (ev):

   -61.7362 -61.7360 -61.7347 -61.7345 -61.7345 -61.7341 -61.7318 -61.7314
   -61.7313 -61.7310 -61.7304 -61.7302 -61.7302 -61.7302 -61.7299 -61.7298
   -61.7296 -61.7293 -35.2196 -35.2196 -35.2195 -35.2194 -35.2194 -35.2193
   -35.2193 -35.2192 -35.2192 -35.2192 -35.2192 -35.2192 -35.2191 -35.2190
   -35.2190 -35.2189 -35.2189 -35.2188 -35.2188 -35.2188 -35.2187 -35.2187
   -35.2187 -35.2187 -35.2186 -35.2186 -35.2185 -35.2185 -35.2185 -35.2183
   -35.2183 -35.2183 -35.2183 -35.2183 -35.2182 -35.2182 -35.2181 -35.2180
   -35.2179 -35.2179 -35.2178 -35.2178 -35.2177 -35.2177 -35.2175 -35.2174
   -35.2171 -35.2170 -35.2170 -35.2169 -35.2168 -35.2168 -35.2168 -35.2167
   -35.2165 -35.2164 -35.2164 -35.2163 -35.2163 -35.2163 -35.2162 -35.2162
   -35.2161 -35.2160 -35.2160 -35.2160 -35.2158 -35.2156 -35.2155 -35.2154
   -35.2133 -35.2132 -35.1814 -35.1814 -35.1812 -35.1811 -35.1811 -35.1811
   -35.1810 -35.1810 -35.1809 -35.1809 -35.1808 -35.1807 -35.1807 -35.1807
   -35.1806 -35.1806 -35.1806 -35.1805 -35.1805 -35.1805 -35.1804 -35.1804
   -35.1804 -35.1803 -35.1803 -35.1803 -35.1803 -35.1802 -35.1802 -35.1802
   -35.1801 -35.1801 -35.1801 -35.1800 -35.1800 -35.1800 -35.1799 -35.1799
   -35.1798 -35.1798 -35.1798 -35.1797 -35.1797 -35.1796 -35.1796 -35.1795
   -35.1795 -35.1795 -35.1795 -35.1795 -35.1794 -35.1794 -35.1793 -35.1793
   -35.1793 -35.1793 -35.1792 -35.1791 -35.1791 -35.1791 -35.1790 -35.1790
   -35.1789 -35.1788 -35.1787 -35.1787 -35.1787 -35.1785 -35.1785 -35.1784
   -35.1768 -35.1764 -35.1649 -35.1646 -35.1645 -35.1644 -35.1641 -35.1640
   -35.1640 -35.1639 -35.1637 -35.1637 -35.1636 -35.1636 -35.1635 -35.1634
   -35.1632 -35.1631 -35.1630 -35.1627 -35.1624 -35.1621 -35.1620 -35.1618
   -35.1615 -35.1614 -35.1613 -35.1613 -35.1611 -35.1611 -35.1610 -35.1610
   -35.1608 -35.1607 -35.1605 -35.1605 -35.1603 -35.1593 -26.0361 -26.0361
   -26.0357 -26.0355 -26.0280 -26.0275 -26.0093 -26.0088 -25.9979 -25.9979
   -25.9976 -25.9973 -25.9376 -25.9372 -25.9336 -25.9336 -25.9333 -25.9331
   -25.9316 -25.9312 -25.9208 -25.9205 -25.9134 -25.9134 -25.9132 -25.9129
   -25.9126 -25.9126 -25.9126 -25.9121 -25.9103 -25.9103 -25.9100 -25.9097
   -25.8963 -25.8963 -25.8962 -25.8958 -25.8955 -25.8951 -25.8905 -25.8903
   -25.8903 -25.8902 -25.8900 -25.8896 -25.8881 -25.8878 -25.8804 -25.8804
   -25.8801 -25.8799 -25.8695 -25.8691  -2.0520  -1.8865  -1.7083  -1.7072
    -1.5501  -1.5486  -0.9640  -0.8944  -0.8933  -0.7848  -0.7848  -0.7737
    -0.7723  -0.7005  -0.5516  -0.5512  -0.5354  -0.5063  -0.5051  -0.4486
    -0.4297  -0.4283  -0.3717  -0.3666  -0.3661  -0.3146  -0.2197  -0.2191
    -0.1832  -0.1812  -0.1805  -0.1065  -0.1017  -0.1009  -0.0863  -0.0492
     6.2472   6.2479   6.3002   6.4452   6.4460   6.4712   6.6472   6.7145
     6.7148   6.9362   6.9936   7.0365   7.0371   7.0411   7.1898   7.1904
     7.3123   7.3515   7.3994   7.4003   7.4104   7.4114   7.4564   7.4569
     7.5107   7.6276   7.7963   7.7969   7.9155   7.9162   8.0750   8.0758
     8.1349   8.1532   8.1544   8.2128   8.3345   8.3498   8.3503   8.3662
     8.3663   8.4265   8.4269   8.5154   8.5474   8.5487   8.8860   8.9577
     8.9583   8.9824   8.9834   9.1029   9.1193   9.1277   9.1502   9.2493
     9.2723   9.2732   9.3066   9.3228   9.3235   9.3308   9.3690   9.3698
     9.4055   9.4375   9.4384   9.5763   9.7962   9.8525   9.8536   9.8961
     9.8968   9.9929   9.9936   9.9955   9.9966  10.1030  10.1719  10.1924
    10.2376  10.2896  10.2909  10.4006  10.4010  10.4331  10.4372  10.4377
    10.4449  10.4458  10.4659  10.5067  10.5073  10.5831  10.5834  10.6701
    10.7014  10.7021  10.7822  10.7836  10.8786  10.8794  11.0074  11.0090
    11.0823  11.3937  11.3945  11.5005  11.6484  11.6491  11.6580  11.6588
    11.6739  11.6745  11.7594  11.7606  11.7749  11.7756  11.8118  11.8127
    11.8235  11.8925  11.9023  12.0719  12.1234  12.2680

          k =-0.5000 0.0000 0.1957 ( 92753 PWs)   bands (ev):

   -61.7362 -61.7360 -61.7347 -61.7345 -61.7345 -61.7341 -61.7318 -61.7314
   -61.7313 -61.7310 -61.7304 -61.7302 -61.7302 -61.7302 -61.7299 -61.7298
   -61.7296 -61.7293 -35.2196 -35.2196 -35.2195 -35.2194 -35.2194 -35.2193
   -35.2193 -35.2192 -35.2192 -35.2192 -35.2192 -35.2192 -35.2191 -35.2190
   -35.2190 -35.2189 -35.2189 -35.2188 -35.2188 -35.2188 -35.2187 -35.2187
   -35.2187 -35.2187 -35.2186 -35.2186 -35.2185 -35.2185 -35.2185 -35.2183
   -35.2183 -35.2183 -35.2183 -35.2183 -35.2182 -35.2182 -35.2181 -35.2180
   -35.2179 -35.2179 -35.2178 -35.2178 -35.2177 -35.2177 -35.2175 -35.2174
   -35.2171 -35.2170 -35.2170 -35.2169 -35.2168 -35.2168 -35.2168 -35.2167
   -35.2165 -35.2164 -35.2164 -35.2163 -35.2163 -35.2163 -35.2162 -35.2162
   -35.2161 -35.2160 -35.2160 -35.2160 -35.2158 -35.2156 -35.2155 -35.2154
   -35.2133 -35.2132 -35.1814 -35.1814 -35.1812 -35.1811 -35.1811 -35.1811
   -35.1810 -35.1810 -35.1809 -35.1809 -35.1808 -35.1807 -35.1807 -35.1807
   -35.1806 -35.1806 -35.1806 -35.1805 -35.1805 -35.1805 -35.1804 -35.1804
   -35.1803 -35.1803 -35.1803 -35.1803 -35.1803 -35.1802 -35.1802 -35.1802
   -35.1801 -35.1801 -35.1801 -35.1800 -35.1800 -35.1800 -35.1799 -35.1799
   -35.1798 -35.1798 -35.1798 -35.1797 -35.1797 -35.1796 -35.1796 -35.1796
   -35.1795 -35.1795 -35.1795 -35.1795 -35.1794 -35.1794 -35.1794 -35.1793
   -35.1793 -35.1793 -35.1792 -35.1791 -35.1791 -35.1791 -35.1790 -35.1789
   -35.1789 -35.1788 -35.1787 -35.1787 -35.1787 -35.1785 -35.1785 -35.1784
   -35.1768 -35.1764 -35.1649 -35.1646 -35.1645 -35.1644 -35.1641 -35.1640
   -35.1640 -35.1639 -35.1637 -35.1637 -35.1636 -35.1636 -35.1635 -35.1634
   -35.1632 -35.1631 -35.1630 -35.1627 -35.1624 -35.1621 -35.1620 -35.1618
   -35.1615 -35.1614 -35.1613 -35.1613 -35.1611 -35.1611 -35.1610 -35.1610
   -35.1608 -35.1607 -35.1605 -35.1605 -35.1603 -35.1593 -26.0361 -26.0361
   -26.0357 -26.0355 -26.0280 -26.0275 -26.0093 -26.0088 -25.9979 -25.9979
   -25.9976 -25.9973 -25.9376 -25.9372 -25.9336 -25.9336 -25.9333 -25.9331
   -25.9316 -25.9312 -25.9208 -25.9205 -25.9134 -25.9134 -25.9132 -25.9129
   -25.9126 -25.9126 -25.9126 -25.9121 -25.9103 -25.9103 -25.9100 -25.9097
   -25.8963 -25.8963 -25.8962 -25.8958 -25.8955 -25.8951 -25.8905 -25.8903
   -25.8903 -25.8902 -25.8900 -25.8896 -25.8881 -25.8878 -25.8804 -25.8804
   -25.8801 -25.8799 -25.8695 -25.8691  -2.0520  -1.8865  -1.7083  -1.7072
    -1.5501  -1.5486  -0.9640  -0.8944  -0.8933  -0.7849  -0.7848  -0.7737
    -0.7723  -0.7005  -0.5516  -0.5512  -0.5354  -0.5063  -0.5051  -0.4487
    -0.4297  -0.4282  -0.3717  -0.3666  -0.3661  -0.3146  -0.2197  -0.2190
    -0.1832  -0.1812  -0.1805  -0.1065  -0.1017  -0.1009  -0.0863  -0.0493
     6.2472   6.2479   6.3002   6.4452   6.4461   6.4712   6.6472   6.7145
     6.7150   6.9363   6.9936   7.0365   7.0370   7.0412   7.1898   7.1904
     7.3123   7.3515   7.3995   7.4001   7.4104   7.4112   7.4563   7.4571
     7.5106   7.6277   7.7961   7.7969   7.9158   7.9161   8.0748   8.0758
     8.1351   8.1532   8.1543   8.2130   8.3341   8.3498   8.3503   8.3660
     8.3663   8.4267   8.4270   8.5150   8.5477   8.5486   8.8863   8.9579
     8.9584   8.9825   8.9831   9.1034   9.1194   9.1277   9.1502   9.2489
     9.2723   9.2729   9.3063   9.3228   9.3237   9.3304   9.3690   9.3700
     9.4057   9.4374   9.4381   9.5761   9.7965   9.8525   9.8538   9.8961
     9.8970   9.9929   9.9935   9.9956   9.9962  10.1032  10.1719  10.1924
    10.2374  10.2896  10.2907  10.4007  10.4010  10.4331  10.4371  10.4376
    10.4447  10.4461  10.4655  10.5069  10.5072  10.5828  10.5836  10.6705
    10.7015  10.7022  10.7825  10.7837  10.8783  10.8792  11.0076  11.0091
    11.0824  11.3935  11.3946  11.5001  11.6485  11.6490  11.6578  11.6590
    11.6738  11.6745  11.7596  11.7603  11.7746  11.7757  11.8119  11.8127
    11.8236  11.8925  11.9022  12.0719  12.1238  12.2678

          k =-0.2500 0.1443 0.1957 ( 92754 PWs)   bands (ev):

   -61.7370 -61.7369 -61.7341 -61.7338 -61.7327 -61.7327 -61.7327 -61.7325
   -61.7313 -61.7311 -61.7311 -61.7308 -61.7307 -61.7303 -61.7296 -61.7296
   -61.7293 -61.7291 -35.2197 -35.2196 -35.2195 -35.2195 -35.2195 -35.2194
   -35.2194 -35.2194 -35.2194 -35.2193 -35.2192 -35.2191 -35.2191 -35.2191
   -35.2190 -35.2190 -35.2189 -35.2189 -35.2189 -35.2189 -35.2188 -35.2188
   -35.2188 -35.2187 -35.2186 -35.2186 -35.2186 -35.2186 -35.2185 -35.2185
   -35.2184 -35.2183 -35.2182 -35.2181 -35.2179 -35.2179 -35.2178 -35.2178
   -35.2177 -35.2175 -35.2175 -35.2174 -35.2174 -35.2172 -35.2172 -35.2171
   -35.2171 -35.2169 -35.2169 -35.2169 -35.2168 -35.2168 -35.2168 -35.2167
   -35.2167 -35.2167 -35.2165 -35.2164 -35.2164 -35.2164 -35.2163 -35.2163
   -35.2163 -35.2162 -35.2162 -35.2161 -35.2159 -35.2159 -35.2157 -35.2155
   -35.2133 -35.2132 -35.1816 -35.1816 -35.1811 -35.1811 -35.1810 -35.1810
   -35.1809 -35.1809 -35.1808 -35.1808 -35.1807 -35.1807 -35.1807 -35.1807
   -35.1806 -35.1806 -35.1805 -35.1805 -35.1805 -35.1804 -35.1804 -35.1804
   -35.1803 -35.1803 -35.1803 -35.1803 -35.1803 -35.1802 -35.1802 -35.1802
   -35.1802 -35.1801 -35.1801 -35.1801 -35.1800 -35.1800 -35.1799 -35.1799
   -35.1799 -35.1799 -35.1799 -35.1798 -35.1797 -35.1797 -35.1797 -35.1796
   -35.1796 -35.1796 -35.1795 -35.1794 -35.1794 -35.1793 -35.1793 -35.1793
   -35.1793 -35.1792 -35.1792 -35.1792 -35.1791 -35.1791 -35.1790 -35.1789
   -35.1789 -35.1788 -35.1786 -35.1786 -35.1786 -35.1785 -35.1784 -35.1783
   -35.1768 -35.1764 -35.1651 -35.1645 -35.1644 -35.1642 -35.1642 -35.1639
   -35.1639 -35.1638 -35.1638 -35.1637 -35.1636 -35.1636 -35.1635 -35.1634
   -35.1632 -35.1631 -35.1630 -35.1627 -35.1626 -35.1619 -35.1619 -35.1617
   -35.1616 -35.1613 -35.1613 -35.1613 -35.1611 -35.1611 -35.1609 -35.1609
   -35.1609 -35.1607 -35.1606 -35.1604 -35.1604 -35.1593 -26.0307 -26.0302
   -26.0146 -26.0146 -26.0143 -26.0140 -26.0117 -26.0117 -26.0115 -26.0111
   -25.9772 -25.9772 -25.9769 -25.9766 -25.9556 -25.9556 -25.9552 -25.9551
   -25.9525 -25.9520 -25.9255 -25.9252 -25.9091 -25.9089 -25.9040 -25.9040
   -25.9037 -25.9035 -25.9032 -25.9032 -25.9029 -25.9029 -25.9007 -25.9003
   -25.8950 -25.8950 -25.8948 -25.8947 -25.8931 -25.8931 -25.8928 -25.8927
   -25.8926 -25.8925 -25.8868 -25.8868 -25.8866 -25.8865 -25.8821 -25.8818
   -25.8731 -25.8726 -25.8635 -25.8632  -2.2371  -2.0691  -1.5505  -1.3969
    -1.2618  -1.2604  -1.1197  -1.1181  -1.0608  -0.8113  -0.8100  -0.7823
    -0.7040  -0.6987  -0.6971  -0.6676  -0.5704  -0.5554  -0.5550  -0.4857
    -0.3667  -0.3662  -0.3296  -0.3291  -0.2991  -0.2978  -0.2624  -0.2537
    -0.2522  -0.1970  -0.1964  -0.1545  -0.0627  -0.0620  -0.0157  -0.0150
     6.0658   6.3246   6.5289   6.6505   6.6508   6.8197   6.8505   6.8510
     6.8611   6.8889   6.8896   6.9858   6.9868   7.0602   7.0611   7.2109
     7.2119   7.3312   7.3318   7.4607   7.4611   7.4748   7.5075   7.5857
     7.6772   7.6778   7.6918   7.6929   7.7159   7.7164   7.9677   7.9681
     8.0395   8.0564   8.0826   8.0829   8.1617   8.2505   8.2511   8.4268
     8.4273   8.4879   8.4895   8.5297   8.5300   8.5355   8.6417   8.6420
     8.6674   8.6684   8.7219   8.8442   8.8453   9.0619   9.1736   9.1744
     9.3054   9.3061   9.3252   9.3268   9.4058   9.4428   9.4441   9.4631
     9.4638   9.4796   9.5238   9.6234   9.6432   9.6566   9.6579  10.0090
    10.0146  10.0343  10.0737  10.2188  10.2199  10.2681  10.4299  10.4304
    10.4403  10.4404  10.4527  10.4533  10.5121  10.5133  10.5339  10.5365
    10.5561  10.5565  10.5944  10.6028  10.6220  10.6227  10.6662  10.7466
    10.7475  10.7617  10.7620  10.8369  10.8845  11.0408  11.0420  11.0424
    11.1277  11.1334  11.2382  11.2870  11.4075  11.4245  11.4751  11.4758
    11.5304  11.5324  11.5331  11.5333  11.5339  11.6005  11.6102  11.6106
    12.0681  12.0682  12.2160  12.2162  12.3031  12.6034

          k =-0.2500-0.1443-0.1957 ( 92754 PWs)   bands (ev):

   -61.7370 -61.7369 -61.7339 -61.7338 -61.7331 -61.7327 -61.7327 -61.7323
   -61.7311 -61.7311 -61.7311 -61.7310 -61.7307 -61.7303 -61.7296 -61.7296
   -61.7293 -61.7291 -35.2197 -35.2196 -35.2196 -35.2195 -35.2195 -35.2194
   -35.2194 -35.2194 -35.2194 -35.2193 -35.2192 -35.2191 -35.2191 -35.2191
   -35.2190 -35.2190 -35.2190 -35.2189 -35.2189 -35.2189 -35.2188 -35.2188
   -35.2188 -35.2187 -35.2186 -35.2186 -35.2186 -35.2186 -35.2185 -35.2185
   -35.2183 -35.2183 -35.2182 -35.2181 -35.2179 -35.2179 -35.2178 -35.2178
   -35.2177 -35.2175 -35.2175 -35.2174 -35.2174 -35.2172 -35.2171 -35.2171
   -35.2171 -35.2169 -35.2169 -35.2169 -35.2168 -35.2168 -35.2167 -35.2167
   -35.2167 -35.2167 -35.2165 -35.2164 -35.2164 -35.2164 -35.2164 -35.2163
   -35.2162 -35.2162 -35.2161 -35.2161 -35.2159 -35.2159 -35.2157 -35.2155
   -35.2133 -35.2133 -35.1816 -35.1816 -35.1811 -35.1811 -35.1810 -35.1810
   -35.1809 -35.1808 -35.1808 -35.1808 -35.1807 -35.1807 -35.1807 -35.1807
   -35.1806 -35.1806 -35.1805 -35.1805 -35.1805 -35.1804 -35.1804 -35.1804
   -35.1803 -35.1803 -35.1803 -35.1803 -35.1802 -35.1802 -35.1802 -35.1802
   -35.1802 -35.1802 -35.1801 -35.1801 -35.1800 -35.1800 -35.1799 -35.1799
   -35.1799 -35.1799 -35.1798 -35.1797 -35.1797 -35.1797 -35.1797 -35.1797
   -35.1796 -35.1796 -35.1795 -35.1795 -35.1794 -35.1793 -35.1793 -35.1793
   -35.1792 -35.1792 -35.1792 -35.1792 -35.1791 -35.1791 -35.1790 -35.1789
   -35.1789 -35.1788 -35.1787 -35.1786 -35.1785 -35.1785 -35.1785 -35.1783
   -35.1768 -35.1764 -35.1651 -35.1645 -35.1644 -35.1642 -35.1642 -35.1640
   -35.1639 -35.1638 -35.1638 -35.1637 -35.1636 -35.1635 -35.1635 -35.1634
   -35.1632 -35.1631 -35.1630 -35.1627 -35.1626 -35.1619 -35.1619 -35.1616
   -35.1616 -35.1613 -35.1613 -35.1613 -35.1611 -35.1611 -35.1609 -35.1609
   -35.1609 -35.1608 -35.1606 -35.1604 -35.1604 -35.1593 -26.0307 -26.0303
   -26.0146 -26.0146 -26.0143 -26.0140 -26.0117 -26.0117 -26.0115 -26.0111
   -25.9772 -25.9772 -25.9768 -25.9766 -25.9556 -25.9556 -25.9553 -25.9551
   -25.9525 -25.9521 -25.9255 -25.9252 -25.9091 -25.9089 -25.9040 -25.9040
   -25.9038 -25.9035 -25.9032 -25.9032 -25.9030 -25.9029 -25.9007 -25.9002
   -25.8950 -25.8950 -25.8948 -25.8948 -25.8931 -25.8931 -25.8929 -25.8928
   -25.8925 -25.8924 -25.8868 -25.8868 -25.8866 -25.8865 -25.8821 -25.8817
   -25.8731 -25.8727 -25.8635 -25.8631  -2.2371  -2.0691  -1.5504  -1.3968
    -1.2617  -1.2606  -1.1196  -1.1182  -1.0608  -0.8113  -0.8102  -0.7823
    -0.7041  -0.6987  -0.6973  -0.6674  -0.5703  -0.5554  -0.5549  -0.4858
    -0.3667  -0.3660  -0.3296  -0.3290  -0.2991  -0.2979  -0.2626  -0.2537
    -0.2522  -0.1971  -0.1962  -0.1548  -0.0627  -0.0621  -0.0157  -0.0149
     6.0658   6.3244   6.5287   6.6506   6.6509   6.8197   6.8507   6.8510
     6.8611   6.8888   6.8898   6.9859   6.9867   7.0602   7.0609   7.2112
     7.2118   7.3310   7.3319   7.4608   7.4610   7.4752   7.5076   7.5860
     7.6771   7.6776   7.6918   7.6931   7.7162   7.7164   7.9675   7.9680
     8.0396   8.0569   8.0824   8.0830   8.1615   8.2503   8.2506   8.4269
     8.4274   8.4880   8.4890   8.5294   8.5300   8.5359   8.6415   8.6419
     8.6675   8.6685   8.7214   8.8443   8.8452   9.0618   9.1734   9.1738
     9.3053   9.3057   9.3256   9.3268   9.4062   9.4428   9.4434   9.4631
     9.4636   9.4801   9.5235   9.6238   9.6435   9.6569   9.6576  10.0096
    10.0144  10.0340  10.0745  10.2195  10.2199  10.2679  10.4302  10.4311
    10.4395  10.4408  10.4530  10.4536  10.5122  10.5131  10.5331  10.5353
    10.5559  10.5568  10.5942  10.6026  10.6224  10.6230  10.6661  10.7466
    10.7475  10.7606  10.7621  10.8379  10.8857  11.0399  11.0423  11.0426
    11.1278  11.1335  11.2378  11.2871  11.4076  11.4241  11.4755  11.4760
    11.5299  11.5322  11.5331  11.5337  11.5343  11.6001  11.6100  11.6108
    12.0681  12.0683  12.2160  12.2163  12.3027  12.6034

          k = 0.2500 0.1443-0.1957 ( 92754 PWs)   bands (ev):

   -61.7370 -61.7369 -61.7339 -61.7338 -61.7331 -61.7327 -61.7327 -61.7323
   -61.7311 -61.7311 -61.7311 -61.7310 -61.7307 -61.7303 -61.7296 -61.7296
   -61.7293 -61.7291 -35.2197 -35.2196 -35.2196 -35.2195 -35.2195 -35.2194
   -35.2194 -35.2194 -35.2194 -35.2193 -35.2192 -35.2191 -35.2191 -35.2191
   -35.2190 -35.2190 -35.2190 -35.2189 -35.2189 -35.2189 -35.2188 -35.2188
   -35.2188 -35.2187 -35.2186 -35.2186 -35.2186 -35.2186 -35.2185 -35.2185
   -35.2183 -35.2183 -35.2182 -35.2181 -35.2179 -35.2179 -35.2178 -35.2178
   -35.2177 -35.2175 -35.2175 -35.2174 -35.2174 -35.2172 -35.2171 -35.2171
   -35.2171 -35.2169 -35.2169 -35.2169 -35.2168 -35.2168 -35.2167 -35.2167
   -35.2167 -35.2167 -35.2165 -35.2164 -35.2164 -35.2164 -35.2164 -35.2163
   -35.2162 -35.2162 -35.2161 -35.2161 -35.2159 -35.2159 -35.2157 -35.2155
   -35.2133 -35.2133 -35.1816 -35.1816 -35.1811 -35.1811 -35.1810 -35.1810
   -35.1809 -35.1808 -35.1808 -35.1808 -35.1807 -35.1807 -35.1807 -35.1807
   -35.1806 -35.1806 -35.1806 -35.1805 -35.1805 -35.1804 -35.1804 -35.1804
   -35.1803 -35.1803 -35.1803 -35.1803 -35.1802 -35.1802 -35.1802 -35.1802
   -35.1802 -35.1802 -35.1801 -35.1801 -35.1800 -35.1800 -35.1800 -35.1799
   -35.1799 -35.1798 -35.1798 -35.1797 -35.1797 -35.1797 -35.1797 -35.1797
   -35.1796 -35.1796 -35.1795 -35.1795 -35.1794 -35.1793 -35.1793 -35.1793
   -35.1792 -35.1792 -35.1792 -35.1792 -35.1791 -35.1791 -35.1790 -35.1789
   -35.1789 -35.1788 -35.1787 -35.1786 -35.1785 -35.1785 -35.1785 -35.1783
   -35.1768 -35.1764 -35.1651 -35.1645 -35.1644 -35.1642 -35.1642 -35.1640
   -35.1639 -35.1638 -35.1638 -35.1637 -35.1636 -35.1635 -35.1635 -35.1634
   -35.1632 -35.1631 -35.1630 -35.1627 -35.1626 -35.1619 -35.1619 -35.1616
   -35.1616 -35.1613 -35.1613 -35.1613 -35.1611 -35.1611 -35.1609 -35.1609
   -35.1609 -35.1608 -35.1606 -35.1604 -35.1604 -35.1593 -26.0307 -26.0303
   -26.0146 -26.0146 -26.0143 -26.0140 -26.0117 -26.0117 -26.0115 -26.0111
   -25.9772 -25.9772 -25.9768 -25.9766 -25.9556 -25.9556 -25.9553 -25.9551
   -25.9525 -25.9521 -25.9255 -25.9252 -25.9091 -25.9089 -25.9040 -25.9040
   -25.9038 -25.9035 -25.9032 -25.9032 -25.9030 -25.9029 -25.9007 -25.9002
   -25.8950 -25.8950 -25.8948 -25.8948 -25.8931 -25.8931 -25.8929 -25.8928
   -25.8925 -25.8924 -25.8868 -25.8868 -25.8866 -25.8865 -25.8821 -25.8817
   -25.8731 -25.8727 -25.8635 -25.8631  -2.2371  -2.0691  -1.5504  -1.3968
    -1.2617  -1.2606  -1.1196  -1.1182  -1.0608  -0.8113  -0.8102  -0.7823
    -0.7041  -0.6987  -0.6973  -0.6674  -0.5703  -0.5554  -0.5548  -0.4858
    -0.3667  -0.3660  -0.3296  -0.3290  -0.2991  -0.2978  -0.2626  -0.2537
    -0.2523  -0.1971  -0.1962  -0.1548  -0.0627  -0.0620  -0.0157  -0.0149
     6.0658   6.3244   6.5286   6.6505   6.6508   6.8197   6.8509   6.8511
     6.8611   6.8889   6.8897   6.9857   6.9869   7.0603   7.0612   7.2109
     7.2119   7.3313   7.3318   7.4604   7.4607   7.4752   7.5075   7.5861
     7.6778   7.6779   7.6913   7.6928   7.7154   7.7161   7.9681   7.9689
     8.0396   8.0569   8.0824   8.0830   8.1611   8.2502   8.2508   8.4269
     8.4274   8.4884   8.4886   8.5293   8.5299   8.5359   8.6413   8.6420
     8.6676   8.6684   8.7218   8.8440   8.8447   9.0616   9.1739   9.1748
     9.3053   9.3058   9.3253   9.3263   9.4062   9.4428   9.4432   9.4630
     9.4634   9.4801   9.5236   9.6236   9.6434   9.6570   9.6579  10.0096
    10.0145  10.0340  10.0744  10.2190  10.2199  10.2673  10.4304  10.4307
    10.4401  10.4407  10.4530  10.4537  10.5122  10.5131  10.5336  10.5355
    10.5562  10.5567  10.5947  10.6027  10.6220  10.6231  10.6660  10.7470
    10.7475  10.7610  10.7616  10.8380  10.8857  11.0399  11.0421  11.0428
    11.1272  11.1335  11.2377  11.2871  11.4073  11.4241  11.4755  11.4759
    11.5304  11.5325  11.5334  11.5338  11.5343  11.5998  11.6098  11.6106
    12.0681  12.0682  12.2160  12.2164  12.3031  12.6033

          k = 0.0000-0.2887 0.1957 ( 92754 PWs)   bands (ev):

   -61.7370 -61.7369 -61.7340 -61.7338 -61.7329 -61.7327 -61.7327 -61.7324
   -61.7313 -61.7311 -61.7311 -61.7308 -61.7307 -61.7303 -61.7296 -61.7296
   -61.7293 -61.7291 -35.2197 -35.2196 -35.2196 -35.2195 -35.2194 -35.2194
   -35.2194 -35.2194 -35.2194 -35.2193 -35.2192 -35.2192 -35.2191 -35.2191
   -35.2190 -35.2190 -35.2189 -35.2189 -35.2189 -35.2189 -35.2188 -35.2188
   -35.2188 -35.2187 -35.2187 -35.2186 -35.2186 -35.2186 -35.2186 -35.2185
   -35.2184 -35.2183 -35.2181 -35.2180 -35.2180 -35.2179 -35.2178 -35.2178
   -35.2177 -35.2175 -35.2175 -35.2174 -35.2174 -35.2172 -35.2171 -35.2171
   -35.2170 -35.2169 -35.2169 -35.2169 -35.2168 -35.2168 -35.2168 -35.2167
   -35.2167 -35.2167 -35.2166 -35.2164 -35.2164 -35.2164 -35.2164 -35.2163
   -35.2163 -35.2162 -35.2161 -35.2161 -35.2160 -35.2159 -35.2157 -35.2155
   -35.2133 -35.2132 -35.1816 -35.1816 -35.1811 -35.1811 -35.1810 -35.1810
   -35.1809 -35.1808 -35.1808 -35.1808 -35.1807 -35.1807 -35.1807 -35.1807
   -35.1806 -35.1806 -35.1805 -35.1805 -35.1804 -35.1804 -35.1804 -35.1804
   -35.1803 -35.1803 -35.1803 -35.1803 -35.1803 -35.1802 -35.1802 -35.1802
   -35.1802 -35.1802 -35.1801 -35.1800 -35.1800 -35.1800 -35.1799 -35.1799
   -35.1799 -35.1799 -35.1799 -35.1798 -35.1797 -35.1797 -35.1797 -35.1797
   -35.1796 -35.1796 -35.1795 -35.1795 -35.1794 -35.1793 -35.1793 -35.1793
   -35.1792 -35.1792 -35.1792 -35.1792 -35.1791 -35.1791 -35.1790 -35.1789
   -35.1789 -35.1788 -35.1787 -35.1786 -35.1785 -35.1785 -35.1784 -35.1784
   -35.1768 -35.1764 -35.1651 -35.1645 -35.1644 -35.1642 -35.1642 -35.1640
   -35.1639 -35.1638 -35.1637 -35.1637 -35.1636 -35.1636 -35.1635 -35.1634
   -35.1632 -35.1631 -35.1630 -35.1627 -35.1626 -35.1619 -35.1619 -35.1617
   -35.1616 -35.1613 -35.1613 -35.1613 -35.1611 -35.1611 -35.1610 -35.1609
   -35.1609 -35.1607 -35.1606 -35.1604 -35.1604 -35.1593 -26.0307 -26.0303
   -26.0146 -26.0146 -26.0143 -26.0140 -26.0117 -26.0117 -26.0115 -26.0111
   -25.9772 -25.9772 -25.9769 -25.9766 -25.9556 -25.9556 -25.9553 -25.9551
   -25.9525 -25.9520 -25.9255 -25.9252 -25.9091 -25.9089 -25.9040 -25.9040
   -25.9037 -25.9035 -25.9032 -25.9032 -25.9030 -25.9029 -25.9007 -25.9002
   -25.8950 -25.8950 -25.8948 -25.8948 -25.8931 -25.8931 -25.8928 -25.8928
   -25.8925 -25.8925 -25.8868 -25.8868 -25.8866 -25.8865 -25.8821 -25.8817
   -25.8731 -25.8726 -25.8635 -25.8631  -2.2371  -2.0691  -1.5504  -1.3968
    -1.2619  -1.2604  -1.1197  -1.1180  -1.0608  -0.8114  -0.8101  -0.7823
    -0.7040  -0.6987  -0.6972  -0.6675  -0.5703  -0.5556  -0.5548  -0.4857
    -0.3668  -0.3660  -0.3297  -0.3290  -0.2991  -0.2978  -0.2625  -0.2537
    -0.2522  -0.1971  -0.1963  -0.1547  -0.0627  -0.0621  -0.0157  -0.0149
     6.0658   6.3245   6.5288   6.6505   6.6509   6.8197   6.8505   6.8512
     6.8611   6.8886   6.8899   6.9856   6.9870   7.0601   7.0611   7.2110
     7.2119   7.3311   7.3319   7.4608   7.4610   7.4750   7.5075   7.5859
     7.6770   7.6778   7.6918   7.6930   7.7160   7.7164   7.9674   7.9682
     8.0396   8.0566   8.0824   8.0831   8.1616   8.2504   8.2509   8.4267
     8.4275   8.4879   8.4893   8.5296   8.5299   8.5357   8.6414   8.6421
     8.6670   8.6689   8.7216   8.8439   8.8456   9.0618   9.1737   9.1739
     9.3053   9.3060   9.3251   9.3271   9.4060   9.4426   9.4439   9.4630
     9.4639   9.4798   9.5236   9.6236   9.6433   9.6566   9.6578  10.0093
    10.0145  10.0342  10.0741  10.2191  10.2200  10.2680  10.4300  10.4309
    10.4399  10.4406  10.4525  10.4538  10.5120  10.5134  10.5335  10.5359
    10.5559  10.5568  10.5943  10.6027  10.6219  10.6231  10.6661  10.7465
    10.7476  10.7612  10.7620  10.8374  10.8851  11.0405  11.0420  11.0426
    11.1277  11.1335  11.2380  11.2871  11.4076  11.4243  11.4751  11.4761
    11.5301  11.5322  11.5332  11.5334  11.5344  11.6003  11.6100  11.6108
    12.0681  12.0683  12.2160  12.2163  12.3029  12.6034

          k = 0.0000 0.2887 0.1957 ( 92754 PWs)   bands (ev):

   -61.7370 -61.7369 -61.7340 -61.7338 -61.7329 -61.7327 -61.7327 -61.7324
   -61.7313 -61.7311 -61.7311 -61.7308 -61.7307 -61.7303 -61.7296 -61.7296
   -61.7293 -61.7291 -35.2197 -35.2196 -35.2196 -35.2195 -35.2194 -35.2194
   -35.2194 -35.2194 -35.2194 -35.2193 -35.2192 -35.2192 -35.2191 -35.2191
   -35.2190 -35.2190 -35.2189 -35.2189 -35.2189 -35.2189 -35.2188 -35.2188
   -35.2188 -35.2187 -35.2187 -35.2186 -35.2186 -35.2186 -35.2186 -35.2185
   -35.2184 -35.2183 -35.2181 -35.2180 -35.2180 -35.2179 -35.2178 -35.2178
   -35.2177 -35.2175 -35.2175 -35.2174 -35.2174 -35.2172 -35.2171 -35.2171
   -35.2170 -35.2169 -35.2169 -35.2169 -35.2168 -35.2168 -35.2168 -35.2167
   -35.2167 -35.2167 -35.2166 -35.2164 -35.2164 -35.2164 -35.2164 -35.2163
   -35.2163 -35.2162 -35.2161 -35.2161 -35.2160 -35.2159 -35.2157 -35.2155
   -35.2133 -35.2132 -35.1816 -35.1816 -35.1811 -35.1811 -35.1810 -35.1810
   -35.1809 -35.1808 -35.1808 -35.1808 -35.1807 -35.1807 -35.1807 -35.1807
   -35.1806 -35.1806 -35.1806 -35.1805 -35.1804 -35.1804 -35.1804 -35.1804
   -35.1803 -35.1803 -35.1803 -35.1803 -35.1802 -35.1802 -35.1802 -35.1802
   -35.1802 -35.1802 -35.1801 -35.1800 -35.1800 -35.1800 -35.1799 -35.1799
   -35.1799 -35.1799 -35.1799 -35.1798 -35.1797 -35.1797 -35.1797 -35.1796
   -35.1796 -35.1796 -35.1795 -35.1795 -35.1794 -35.1794 -35.1793 -35.1793
   -35.1793 -35.1792 -35.1792 -35.1792 -35.1791 -35.1791 -35.1790 -35.1789
   -35.1789 -35.1788 -35.1787 -35.1786 -35.1785 -35.1785 -35.1784 -35.1784
   -35.1768 -35.1764 -35.1651 -35.1645 -35.1644 -35.1642 -35.1642 -35.1640
   -35.1639 -35.1638 -35.1637 -35.1637 -35.1636 -35.1636 -35.1635 -35.1634
   -35.1632 -35.1631 -35.1630 -35.1627 -35.1626 -35.1619 -35.1619 -35.1617
   -35.1616 -35.1613 -35.1613 -35.1613 -35.1611 -35.1611 -35.1610 -35.1609
   -35.1609 -35.1607 -35.1606 -35.1604 -35.1604 -35.1593 -26.0307 -26.0303
   -26.0146 -26.0146 -26.0143 -26.0140 -26.0117 -26.0117 -26.0115 -26.0111
   -25.9772 -25.9772 -25.9769 -25.9766 -25.9556 -25.9556 -25.9553 -25.9551
   -25.9525 -25.9520 -25.9255 -25.9252 -25.9091 -25.9089 -25.9040 -25.9040
   -25.9037 -25.9035 -25.9032 -25.9032 -25.9030 -25.9029 -25.9007 -25.9002
   -25.8950 -25.8950 -25.8948 -25.8948 -25.8931 -25.8931 -25.8928 -25.8928
   -25.8925 -25.8925 -25.8868 -25.8868 -25.8866 -25.8865 -25.8821 -25.8817
   -25.8731 -25.8726 -25.8635 -25.8631  -2.2371  -2.0691  -1.5504  -1.3968
    -1.2619  -1.2604  -1.1197  -1.1180  -1.0608  -0.8114  -0.8101  -0.7823
    -0.7040  -0.6987  -0.6972  -0.6675  -0.5704  -0.5556  -0.5548  -0.4857
    -0.3668  -0.3660  -0.3297  -0.3290  -0.2991  -0.2978  -0.2625  -0.2537
    -0.2522  -0.1971  -0.1962  -0.1547  -0.0627  -0.0620  -0.0157  -0.0149
     6.0658   6.3245   6.5287   6.6503   6.6509   6.8197   6.8507   6.8512
     6.8610   6.8887   6.8899   6.9855   6.9870   7.0603   7.0612   7.2110
     7.2119   7.3311   7.3319   7.4604   7.4608   7.4753   7.5075   7.5859
     7.6777   7.6779   7.6914   7.6928   7.7154   7.7161   7.9681   7.9687
     8.0397   8.0566   8.0823   8.0832   8.1610   8.2502   8.2509   8.4268
     8.4279   8.4882   8.4889   8.5292   8.5300   8.5358   8.6414   8.6422
     8.6674   8.6686   8.7219   8.8435   8.8451   9.0618   9.1732   9.1751
     9.3052   9.3065   9.3255   9.3263   9.4060   9.4427   9.4436   9.4629
     9.4635   9.4798   9.5237   9.6236   9.6433   9.6566   9.6581  10.0093
    10.0145  10.0342  10.0741  10.2191  10.2200  10.2679  10.4298  10.4307
    10.4399  10.4407  10.4527  10.4540  10.5120  10.5130  10.5337  10.5358
    10.5559  10.5573  10.5945  10.6028  10.6215  10.6231  10.6661  10.7469
    10.7474  10.7609  10.7616  10.8374  10.8851  11.0402  11.0427  11.0428
    11.1273  11.1335  11.2380  11.2871  11.4076  11.4243  11.4751  11.4757
    11.5306  11.5325  11.5332  11.5335  11.5344  11.6000  11.6098  11.6106
    12.0680  12.0682  12.2161  12.2163  12.3029  12.6034

     highest occupied level (ev):    12.6035

!    total energy              =  -11463.77485257 Ry
     estimated scf accuracy    <          4.2E-11 Ry

     The total energy is the sum of the following terms:
     one-electron contribution =   -5693.60917224 Ry
     hartree contribution      =    3099.47575548 Ry
     xc contribution           =   -2340.30214767 Ry
     ewald contribution        =   -6527.38810313 Ry
     Dispersion Correction     =      -1.95118501 Ry

     convergence has been achieved in  23 iterations

     Forces acting on atoms (cartesian axes, Ry/au):

     atom    1 type  1   force =    -0.00000638   -0.00000024    0.00003217
     atom    2 type  1   force =    -0.00000009    0.00000528   -0.00000423
     atom    3 type  1   force =    -0.00000369    0.00000329   -0.00000460
     atom    4 type  1   force =    -0.00000481   -0.00000171   -0.00000093
     atom    5 type  1   force =     0.00000486    0.00000031   -0.00000787
     atom    6 type  1   force =     0.00000026   -0.00000005    0.00000177
     atom    7 type  1   force =    -0.00000565   -0.00000214   -0.00000076
     atom    8 type  1   force =     0.00000272    0.00000000    0.00000595
     atom    9 type  1   force =     0.00000032   -0.00000543   -0.00000805
     atom   10 type  1   force =    -0.00189225    0.00092911   -0.00200738
     atom   11 type  1   force =    -0.00001087   -0.00001899   -0.00005124
     atom   12 type  1   force =     0.00000779    0.00016777   -0.00062886
     atom   13 type  1   force =    -0.00028301   -0.00110591   -0.00132681
     atom   14 type  1   force =    -0.00003759   -0.00007147   -0.00009393
     atom   15 type  1   force =     0.00001419    0.00004172   -0.00003524
     atom   16 type  1   force =     0.00000732    0.00001084   -0.00005091
     atom   17 type  1   force =    -0.00002522    0.00000857   -0.00005151
     atom   18 type  1   force =     0.00008645    0.00003033   -0.00006461
     atom   19 type  2   force =     0.00257385    0.00000990    0.00401332
     atom   20 type  2   force =    -0.00015603    0.00000052   -0.00034843
     atom   21 type  2   force =    -0.00022377   -0.00001175   -0.00029513
     atom   22 type  2   force =    -0.00004014    0.00013057   -0.00030556
     atom   23 type  2   force =    -0.00001670   -0.00006786   -0.00033875
     atom   24 type  2   force =     0.00000545   -0.00000005   -0.00042428
     atom   25 type  2   force =    -0.00000740    0.00006114   -0.00033205
     atom   26 type  2   force =     0.00000589    0.00000009   -0.00042355
     atom   27 type  2   force =    -0.00004964   -0.00011312   -0.00031199
     atom   28 type  2   force =     0.00003795   -0.00001822    0.00038837
     atom   29 type  2   force =    -0.00000138    0.00000240    0.00042495
     atom   30 type  2   force =    -0.00007433   -0.00004677    0.00029933
     atom   31 type  2   force =     0.00000649    0.00006476    0.00034411
     atom   32 type  2   force =     0.00000359    0.00000019    0.00043112
     atom   33 type  2   force =    -0.00000322    0.00000366    0.00042616
     atom   34 type  2   force =    -0.00000275   -0.00000059    0.00042358
     atom   35 type  2   force =     0.00000143   -0.00000142    0.00042646
     atom   36 type  2   force =     0.00000320   -0.00000373    0.00042874
     atom   37 type  2   force =     0.00000027   -0.00000012   -0.00042599
     atom   38 type  2   force =     0.00000174    0.00000006   -0.00042587
     atom   39 type  2   force =     0.00000007   -0.00000016   -0.00042578
     atom   40 type  2   force =     0.00000023    0.00000007   -0.00042586
     atom   41 type  2   force =    -0.00000076   -0.00000087   -0.00042303
     atom   42 type  2   force =     0.00000135   -0.00000050   -0.00042502
     atom   43 type  2   force =     0.00000057   -0.00000042   -0.00042611
     atom   44 type  2   force =     0.00000081    0.00000081   -0.00042581
     atom   45 type  2   force =     0.00000065    0.00000149   -0.00042416
     atom   46 type  2   force =     0.00005449   -0.00000041   -0.00011268
     atom   47 type  2   force =    -0.00007071   -0.00006330    0.00038666
     atom   48 type  2   force =     0.00001038   -0.00001080    0.00044943
     atom   49 type  2   force =     0.00007603   -0.00001156    0.00040950
     atom   50 type  2   force =    -0.00002800   -0.00002177    0.00042655
     atom   51 type  2   force =    -0.00000632    0.00000009    0.00045144
     atom   52 type  2   force =     0.00003541    0.00011062    0.00037835
     atom   53 type  2   force =    -0.00000592    0.00000020    0.00045071
     atom   54 type  2   force =     0.00001289   -0.00000442    0.00045829

     Total force =     0.006359     Total SCF correction =     0.000039


     Computing stress (Cartesian axis) and pressure

          total   stress  (Ry/bohr**3)                   (kbar)     P=      -17.47
  -0.00014317   0.00000022  -0.00000077          -21.06        0.03       -0.11
   0.00000022  -0.00014317  -0.00000000            0.03      -21.06       -0.00
  -0.00000077  -0.00000000  -0.00007000           -0.11       -0.00      -10.30


     Writing all to output data dir ./WSe.save/ :
     XML data file, charge density, pseudopotentials, collected wavefunctions
 
     init_run     :     10.85s CPU     12.33s WALL (       1 calls)
     electrons    :    771.76s CPU    930.48s WALL (       1 calls)
     forces       :      7.48s CPU      8.27s WALL (       1 calls)
     force_london :      0.04s CPU      0.04s WALL (       1 calls)
     stress       :    116.95s CPU    123.23s WALL (       1 calls)
     stres_london :      0.04s CPU      0.04s WALL (       1 calls)

     Called by init_run:
     wfcinit      :      9.88s CPU     11.25s WALL (       1 calls)
     potinit      :      0.08s CPU      0.10s WALL (       1 calls)
     hinit0       :      0.46s CPU      0.49s WALL (       1 calls)

     Called by electrons:
     c_bands      :    727.42s CPU    877.09s WALL (      24 calls)
     sum_band     :     41.96s CPU     50.29s WALL (      24 calls)
     v_of_rho     :      1.59s CPU      1.82s WALL (      24 calls)
     mix_rho      :      0.54s CPU      0.63s WALL (      24 calls)
     energy_londo :      0.12s CPU      0.17s WALL (       1 calls)

     Called by c_bands:
     init_us_2    :      9.35s CPU      9.45s WALL (     153 calls)
     init_us_2:cp :      9.34s CPU      9.45s WALL (     153 calls)
     cegterg      :    693.50s CPU    829.42s WALL (      72 calls)

     Called by *egterg:
     cdiaghg      :     45.51s CPU    116.19s WALL (     482 calls)
     h_psi        :    401.87s CPU    437.21s WALL (     488 calls)
     g_psi        :      1.69s CPU      1.73s WALL (     413 calls)

     Called by h_psi:
     h_psi:calbec :    104.14s CPU    110.31s WALL (     488 calls)
     vloc_psi     :    202.52s CPU    230.39s WALL (     488 calls)
     add_vuspsi   :     91.13s CPU     91.70s WALL (     488 calls)

     General routines
     calbec       :    111.50s CPU    121.04s WALL (     503 calls)
     fft          :      1.21s CPU      1.42s WALL (     265 calls)
     ffts         :      0.06s CPU      0.09s WALL (      24 calls)
     fftw         :    208.74s CPU    238.39s WALL (  192020 calls)
 
     Parallel routines
     fft_scatt_xy :     27.66s CPU     31.00s WALL (  192309 calls)
     fft_scatt_yz :    114.74s CPU    133.51s WALL (  192309 calls)
 
     PWSCF        :  15m 9.42s CPU  18m 3.23s WALL

 
   This run was terminated on:  18: 3:32   5Nov2024            

=------------------------------------------------------------------------------=
   JOB DONE.
=------------------------------------------------------------------------------=
