
     Program PWSCF v.7.3 starts on  5Nov2024 at 17:26:47 

     This program is part of the open-source Quantum ESPRESSO suite
     for quantum simulation of materials; please cite
         "P. Giannozzi et al., J. Phys.:Condens. Matter 21 395502 (2009);
         "P. Giannozzi et al., J. Phys.:Condens. Matter 29 465901 (2017);
         "P. Giannozzi et al., J. Chem. Phys. 152 154105 (2020);
          URL http://www.quantum-espresso.org", 
     in publications or presentations arising from this work. More details at
     http://www.quantum-espresso.org/quote

     Parallel version (MPI & OpenMP), running on     256 processor cores
     Number of MPI processes:               256
     Threads/MPI process:                     1

     MPI processes distributed on     1 nodes
     482519 MiB available memory on the printing compute node when the environment starts
 
     Waiting for input...
     Reading input from standard input

     Current dimensions of program PWSCF are:
     Max number of different atomic species (ntypx) = 10
     Max number of k-points (npk) =  40000
     Max angular momentum in pseudopotentials (lmaxx) =  4
 
     K-points division:     npool     =       4
     R & G space division:  proc/nbgrp/npool/nimage =      64
     Subspace diagonalization in iterative solution of the eigenvalue problem:
     one sub-group per band group will be used
     scalapack distributed-memory algorithm (size of sub-group:  4*  4 procs)

 
     Parallelization info
     --------------------
     sticks:   dense  smooth     PW     G-vecs:    dense   smooth      PW
     Min         125     125     32                11593    11593    1534
     Max         126     126     33                11602    11602    1543
     Sum        8017    8017   2077               742111   742111   98351
 
     Using Pencil Decomposition
 


     bravais-lattice index     =            0
     lattice parameter (alat)  =      19.0724  a.u.
     unit-cell volume          =    7676.9593 (a.u.)^3
     number of atoms/cell      =           54
     number of atomic types    =            2
     number of electrons       =       828.00
     number of Kohn-Sham states=          414
     kinetic-energy cutoff     =      80.0000  Ry
     charge density cutoff     =     320.0000  Ry
     scf convergence threshold =      1.0E-10
     mixing beta               =       0.5000
     number of iterations used =            8  plain     mixing
     Exchange-correlation= PBE
                           (   1   4   3   4   0   0   0)

     celldm(1)=  19.072350  celldm(2)=   0.000000  celldm(3)=   0.000000
     celldm(4)=   0.000000  celldm(5)=   0.000000  celldm(6)=   0.000000

     crystal axes: (cart. coord. in units of alat)
               a(1) = (   1.000000   0.000000   0.000000 )  
               a(2) = (  -0.500000   0.866025   0.000000 )  
               a(3) = (   0.000000   0.000000   1.277750 )  

     reciprocal axes: (cart. coord. in units 2 pi/alat)
               b(1) = (  1.000000  0.577350  0.000000 )  
               b(2) = (  0.000000  1.154701  0.000000 )  
               b(3) = (  0.000000  0.000000  0.782626 )  


     PseudoPot. # 1 for W  read from file:
     /users/rkarkee/pbe_pseudo/W.upf
     MD5 check sum: cb94e439a9e4ea809831d6e90c63864e
     Pseudo is Norm-conserving + core correction, Zval = 14.0
     Generated using ONCVPSP code by D. R. Hamann
     Using radial grid of 1396 points,  8 beta functions with: 
                l(1) =   0
                l(2) =   0
                l(3) =   1
                l(4) =   1
                l(5) =   2
                l(6) =   2
                l(7) =   3
                l(8) =   3

     PseudoPot. # 2 for Se read from file:
     /users/rkarkee/pbe_pseudo/Se.upf
     MD5 check sum: 3cc46b3642295b3f4fdae63b742ce36d
     Pseudo is Norm-conserving + core correction, Zval = 16.0
     Generated using ONCVPSP code by D. R. Hamann
     Using radial grid of 1214 points,  6 beta functions with: 
                l(1) =   0
                l(2) =   0
                l(3) =   1
                l(4) =   1
                l(5) =   2
                l(6) =   2

     atomic species   valence    mass     pseudopotential
     W                14.00   183.84000     W ( 1.00)
     Se               16.00    78.96000     Se( 1.00)

     No symmetry found



   Cartesian axes

     site n.     atom                  positions (alat units)
         1        W      tau(   1) = (  -0.0000000   0.1924501   0.9583127  )
         2        W      tau(   2) = (   0.3333333   0.1924501   0.9583127  )
         3        W      tau(   3) = (   0.6666667   0.1924501   0.9583127  )
         4        W      tau(   4) = (  -0.1666667   0.4811252   0.9583127  )
         5        W      tau(   5) = (   0.1666667   0.4811252   0.9583127  )
         6        W      tau(   6) = (   0.5000000   0.4811252   0.9583127  )
         7        W      tau(   7) = (  -0.3333333   0.7698004   0.9583127  )
         8        W      tau(   8) = (   0.0000000   0.7698004   0.9583127  )
         9        W      tau(   9) = (   0.3333333   0.7698004   0.9583127  )
        10        W      tau(  10) = (   0.1666667   0.0962250   0.3194376  )
        11        W      tau(  11) = (   0.5000000   0.0962250   0.3194376  )
        12        W      tau(  12) = (   0.8333333   0.0962250   0.3194376  )
        13        W      tau(  13) = (  -0.0000000   0.3849002   0.3194376  )
        14        W      tau(  14) = (   0.3333333   0.3849002   0.3194376  )
        15        W      tau(  15) = (   0.6666667   0.3849002   0.3194376  )
        16        W      tau(  16) = (  -0.1666667   0.6735753   0.3194376  )
        17        W      tau(  17) = (   0.1666667   0.6735753   0.3194376  )
        18        W      tau(  18) = (   0.5000000   0.6735753   0.3194376  )
        19        Se     tau(  19) = (   0.0006463   0.1924501   0.1561869  )
        20        Se     tau(  20) = (   0.3333333   0.1924501   0.1553611  )
        21        Se     tau(  21) = (   0.6666667   0.1924501   0.1553611  )
        22        Se     tau(  22) = (  -0.1666667   0.4811252   0.1553611  )
        23        Se     tau(  23) = (   0.1666667   0.4811252   0.1553611  )
        24        Se     tau(  24) = (   0.5000000   0.4811252   0.1553611  )
        25        Se     tau(  25) = (  -0.3333333   0.7698004   0.1553611  )
        26        Se     tau(  26) = (   0.0000000   0.7698004   0.1553611  )
        27        Se     tau(  27) = (   0.3333333   0.7698004   0.1553611  )
        28        Se     tau(  28) = (   0.1666667   0.0962250   1.1223892  )
        29        Se     tau(  29) = (   0.5000000   0.0962250   1.1223892  )
        30        Se     tau(  30) = (   0.8333333   0.0962250   1.1223892  )
        31        Se     tau(  31) = (  -0.0000000   0.3849002   1.1223892  )
        32        Se     tau(  32) = (   0.3333333   0.3849002   1.1223892  )
        33        Se     tau(  33) = (   0.6666667   0.3849002   1.1223892  )
        34        Se     tau(  34) = (  -0.1666667   0.6735753   1.1223892  )
        35        Se     tau(  35) = (   0.1666667   0.6735753   1.1223892  )
        36        Se     tau(  36) = (   0.5000000   0.6735753   1.1223892  )
        37        Se     tau(  37) = (   0.1666667   0.0962250   0.7942362  )
        38        Se     tau(  38) = (   0.5000000   0.0962250   0.7942362  )
        39        Se     tau(  39) = (   0.8333333   0.0962250   0.7942362  )
        40        Se     tau(  40) = (  -0.0000000   0.3849002   0.7942362  )
        41        Se     tau(  41) = (   0.3333333   0.3849002   0.7942362  )
        42        Se     tau(  42) = (   0.6666667   0.3849002   0.7942362  )
        43        Se     tau(  43) = (  -0.1666667   0.6735753   0.7942362  )
        44        Se     tau(  44) = (   0.1666667   0.6735753   0.7942362  )
        45        Se     tau(  45) = (   0.5000000   0.6735753   0.7942362  )
        46        Se     tau(  46) = (  -0.0000000   0.1924501   0.4835141  )
        47        Se     tau(  47) = (   0.3333333   0.1924501   0.4835141  )
        48        Se     tau(  48) = (   0.6666667   0.1924501   0.4835141  )
        49        Se     tau(  49) = (  -0.1666667   0.4811252   0.4835141  )
        50        Se     tau(  50) = (   0.1666667   0.4811252   0.4835141  )
        51        Se     tau(  51) = (   0.5000000   0.4811252   0.4835141  )
        52        Se     tau(  52) = (  -0.3333333   0.7698004   0.4835141  )
        53        Se     tau(  53) = (   0.0000000   0.7698004   0.4835141  )
        54        Se     tau(  54) = (   0.3333333   0.7698004   0.4835141  )

     -------------------------------------------------
     Parameters for Dispersion (Grimme-D2) Correction:
     -------------------------------------------------
       atom      VdW radius       C_6     

        W          3.349       2818.308
        Se         3.347        438.498

     number of k points=    12
                       cart. coord. in units 2pi/alat
        k(    1) = (   0.2500000   0.4330127   0.1956564), wk =   0.1666667
        k(    2) = (   0.2500000  -0.1443376   0.1956564), wk =   0.1666667
        k(    3) = (  -0.2500000  -0.4330127   0.1956564), wk =   0.1666667
        k(    4) = (  -0.2500000   0.4330127  -0.1956564), wk =   0.1666667
        k(    5) = (   0.2500000  -0.4330127  -0.1956564), wk =   0.1666667
        k(    6) = (   0.5000000  -0.0000000   0.1956564), wk =   0.1666667
        k(    7) = (  -0.5000000   0.0000000   0.1956564), wk =   0.1666667
        k(    8) = (  -0.2500000   0.1443376   0.1956564), wk =   0.1666667
        k(    9) = (  -0.2500000  -0.1443376  -0.1956564), wk =   0.1666667
        k(   10) = (   0.2500000   0.1443376  -0.1956564), wk =   0.1666667
        k(   11) = (   0.0000000  -0.2886751   0.1956564), wk =   0.1666667
        k(   12) = (   0.0000000   0.2886751   0.1956564), wk =   0.1666667

     Dense  grid:   742111 G-vectors     FFT dimensions: ( 120, 120, 144)

     Estimated max dynamical RAM per process >     125.02 MB

     Estimated total dynamical RAM >      30.72 GB

     Initial potential from superposition of free atoms

     starting charge     827.9882, renormalised to     828.0000
     Starting wfcs are  504 randomized atomic wfcs

     total cpu time spent up to now is       13.0 secs

     Self-consistent Calculation

     iteration #  1     ecut=    80.00 Ry     beta= 0.50
     Davidson diagonalization with overlap
     ethr =  1.00E-02,  avg # of iterations =  2.0

     Threshold (ethr) on eigenvalues was too large:
     Diagonalizing with lowered threshold

     Davidson diagonalization with overlap
     ethr =  8.62E-05,  avg # of iterations =  5.5

     total cpu time spent up to now is       93.4 secs

     total energy              =  -11463.61860944 Ry
     estimated scf accuracy    <       1.08377070 Ry

     iteration #  2     ecut=    80.00 Ry     beta= 0.50
     Davidson diagonalization with overlap
     ethr =  1.31E-04,  avg # of iterations =  2.0

     total cpu time spent up to now is      124.6 secs

     total energy              =  -11463.73465362 Ry
     estimated scf accuracy    <       0.15556767 Ry

     iteration #  3     ecut=    80.00 Ry     beta= 0.50
     Davidson diagonalization with overlap
     ethr =  1.88E-05,  avg # of iterations =  6.2

     total cpu time spent up to now is      170.5 secs

     total energy              =  -11463.74894169 Ry
     estimated scf accuracy    <       0.14747271 Ry

     iteration #  4     ecut=    80.00 Ry     beta= 0.50
     Davidson diagonalization with overlap
     ethr =  1.78E-05,  avg # of iterations =  5.6

     total cpu time spent up to now is      205.7 secs

     total energy              =  -11463.77269548 Ry
     estimated scf accuracy    <       0.00567253 Ry

     iteration #  5     ecut=    80.00 Ry     beta= 0.50
     Davidson diagonalization with overlap
     ethr =  6.85E-07,  avg # of iterations =  6.3

     total cpu time spent up to now is      254.0 secs

     total energy              =  -11463.77322984 Ry
     estimated scf accuracy    <       0.01236836 Ry

     iteration #  6     ecut=    80.00 Ry     beta= 0.50
     Davidson diagonalization with overlap
     ethr =  6.85E-07,  avg # of iterations =  5.2

     total cpu time spent up to now is      290.8 secs

     total energy              =  -11463.77425902 Ry
     estimated scf accuracy    <       0.00306463 Ry

     iteration #  7     ecut=    80.00 Ry     beta= 0.50
     Davidson diagonalization with overlap
     ethr =  3.70E-07,  avg # of iterations =  6.0

     total cpu time spent up to now is      337.7 secs

     total energy              =  -11463.77432418 Ry
     estimated scf accuracy    <       0.01018928 Ry

     iteration #  8     ecut=    80.00 Ry     beta= 0.50
     Davidson diagonalization with overlap
     ethr =  3.70E-07,  avg # of iterations =  5.2

     total cpu time spent up to now is      372.8 secs

     total energy              =  -11463.77449554 Ry
     estimated scf accuracy    <       0.00190159 Ry

     iteration #  9     ecut=    80.00 Ry     beta= 0.50
     Davidson diagonalization with overlap
     ethr =  2.30E-07,  avg # of iterations =  5.0

     total cpu time spent up to now is      409.9 secs

     total energy              =  -11463.77481572 Ry
     estimated scf accuracy    <       0.00001560 Ry

     iteration # 10     ecut=    80.00 Ry     beta= 0.50
     Davidson diagonalization with overlap
     ethr =  1.88E-09,  avg # of iterations =  7.2

     total cpu time spent up to now is      459.4 secs

     total energy              =  -11463.77483661 Ry
     estimated scf accuracy    <       0.00001318 Ry

     iteration # 11     ecut=    80.00 Ry     beta= 0.50
     Davidson diagonalization with overlap
     ethr =  1.59E-09,  avg # of iterations =  6.0

     total cpu time spent up to now is      498.1 secs

     total energy              =  -11463.77483839 Ry
     estimated scf accuracy    <       0.00001190 Ry

     iteration # 12     ecut=    80.00 Ry     beta= 0.50
     Davidson diagonalization with overlap
     ethr =  1.44E-09,  avg # of iterations =  2.9

     total cpu time spent up to now is      526.2 secs

     total energy              =  -11463.77483719 Ry
     estimated scf accuracy    <       0.00000609 Ry

     iteration # 13     ecut=    80.00 Ry     beta= 0.50
     Davidson diagonalization with overlap
     ethr =  7.35E-10,  avg # of iterations =  6.5

     total cpu time spent up to now is      566.5 secs

     total energy              =  -11463.77483830 Ry
     estimated scf accuracy    <       0.00000386 Ry

     iteration # 14     ecut=    80.00 Ry     beta= 0.50
     Davidson diagonalization with overlap
     ethr =  4.67E-10,  avg # of iterations =  2.0

     total cpu time spent up to now is      593.7 secs

     total energy              =  -11463.77483798 Ry
     estimated scf accuracy    <       0.00000221 Ry

     iteration # 15     ecut=    80.00 Ry     beta= 0.50
     Davidson diagonalization with overlap
     ethr =  2.67E-10,  avg # of iterations =  7.0

     total cpu time spent up to now is      632.2 secs

     total energy              =  -11463.77483833 Ry
     estimated scf accuracy    <       0.00000029 Ry

     iteration # 16     ecut=    80.00 Ry     beta= 0.50
     Davidson diagonalization with overlap
     ethr =  3.56E-11,  avg # of iterations =  5.9

     total cpu time spent up to now is      671.2 secs

     total energy              =  -11463.77483833 Ry
     estimated scf accuracy    <       0.00000050 Ry

     iteration # 17     ecut=    80.00 Ry     beta= 0.50
     Davidson diagonalization with overlap
     ethr =  3.56E-11,  avg # of iterations =  2.0

     total cpu time spent up to now is      699.8 secs

     total energy              =  -11463.77483829 Ry
     estimated scf accuracy    <       0.00000030 Ry

     iteration # 18     ecut=    80.00 Ry     beta= 0.50
     Davidson diagonalization with overlap
     ethr =  3.56E-11,  avg # of iterations =  7.0

     total cpu time spent up to now is      735.7 secs

     total energy              =  -11463.77483832 Ry
     estimated scf accuracy    <       0.00000002 Ry

     iteration # 19     ecut=    80.00 Ry     beta= 0.50
     Davidson diagonalization with overlap
     ethr =  2.81E-12,  avg # of iterations =  5.8

     total cpu time spent up to now is      780.8 secs

     total energy              =  -11463.77483832 Ry
     estimated scf accuracy    <       0.00000003 Ry

     iteration # 20     ecut=    80.00 Ry     beta= 0.50
     Davidson diagonalization with overlap
     ethr =  2.81E-12,  avg # of iterations =  4.5

     total cpu time spent up to now is      812.9 secs

     total energy              =  -11463.77483833 Ry
     estimated scf accuracy    <       0.00000001 Ry

     iteration # 21     ecut=    80.00 Ry     beta= 0.50
     Davidson diagonalization with overlap
     ethr =  1.78E-12,  avg # of iterations =  2.4

     total cpu time spent up to now is      840.9 secs

     total energy              =  -11463.77483833 Ry
     estimated scf accuracy    <          7.5E-09 Ry

     iteration # 22     ecut=    80.00 Ry     beta= 0.50
     Davidson diagonalization with overlap
     ethr =  9.08E-13,  avg # of iterations =  6.5

     total cpu time spent up to now is      874.8 secs

     total energy              =  -11463.77483833 Ry
     estimated scf accuracy    <          7.7E-10 Ry

     iteration # 23     ecut=    80.00 Ry     beta= 0.50
     Davidson diagonalization with overlap
     ethr =  1.00E-13,  avg # of iterations =  6.1

     total cpu time spent up to now is      917.1 secs

     total energy              =  -11463.77483833 Ry
     estimated scf accuracy    <          2.7E-10 Ry

     iteration # 24     ecut=    80.00 Ry     beta= 0.50
     Davidson diagonalization with overlap
     ethr =  1.00E-13,  avg # of iterations =  2.0

     total cpu time spent up to now is      945.3 secs

     total energy              =  -11463.77483833 Ry
     estimated scf accuracy    <          1.1E-10 Ry

     iteration # 25     ecut=    80.00 Ry     beta= 0.50
     Davidson diagonalization with overlap
     ethr =  1.00E-13,  avg # of iterations =  1.0

     total cpu time spent up to now is      969.4 secs

     End of self-consistent calculation

          k = 0.2500 0.4330 0.1957 ( 92753 PWs)   bands (ev):

   -61.7359 -61.7356 -61.7345 -61.7340 -61.7340 -61.7339 -61.7314 -61.7311
   -61.7309 -61.7309 -61.7304 -61.7300 -61.7298 -61.7298 -61.7298 -61.7294
   -61.7293 -61.7286 -35.2224 -35.2223 -35.2198 -35.2196 -35.2195 -35.2195
   -35.2194 -35.2194 -35.2193 -35.2193 -35.2192 -35.2191 -35.2191 -35.2191
   -35.2190 -35.2190 -35.2189 -35.2188 -35.2188 -35.2188 -35.2188 -35.2188
   -35.2187 -35.2187 -35.2187 -35.2187 -35.2187 -35.2186 -35.2186 -35.2185
   -35.2184 -35.2184 -35.2183 -35.2183 -35.2183 -35.2182 -35.2182 -35.2182
   -35.2181 -35.2180 -35.2180 -35.2178 -35.2178 -35.2178 -35.2177 -35.2177
   -35.2173 -35.2173 -35.2173 -35.2171 -35.2170 -35.2170 -35.2169 -35.2167
   -35.2166 -35.2165 -35.2165 -35.2164 -35.2164 -35.2163 -35.2163 -35.2163
   -35.2162 -35.2162 -35.2161 -35.2160 -35.2159 -35.2158 -35.2158 -35.2158
   -35.2155 -35.2155 -35.1834 -35.1830 -35.1815 -35.1815 -35.1813 -35.1812
   -35.1811 -35.1811 -35.1809 -35.1809 -35.1809 -35.1808 -35.1808 -35.1807
   -35.1807 -35.1806 -35.1806 -35.1806 -35.1805 -35.1805 -35.1805 -35.1805
   -35.1804 -35.1804 -35.1804 -35.1803 -35.1803 -35.1803 -35.1803 -35.1802
   -35.1801 -35.1801 -35.1801 -35.1800 -35.1800 -35.1800 -35.1800 -35.1799
   -35.1799 -35.1798 -35.1798 -35.1798 -35.1797 -35.1797 -35.1797 -35.1796
   -35.1796 -35.1796 -35.1796 -35.1795 -35.1795 -35.1794 -35.1794 -35.1794
   -35.1793 -35.1792 -35.1792 -35.1792 -35.1792 -35.1790 -35.1790 -35.1790
   -35.1789 -35.1789 -35.1788 -35.1788 -35.1788 -35.1787 -35.1787 -35.1785
   -35.1785 -35.1784 -35.1658 -35.1649 -35.1646 -35.1644 -35.1643 -35.1641
   -35.1640 -35.1640 -35.1639 -35.1638 -35.1637 -35.1635 -35.1634 -35.1634
   -35.1632 -35.1632 -35.1631 -35.1630 -35.1625 -35.1623 -35.1621 -35.1619
   -35.1616 -35.1616 -35.1615 -35.1613 -35.1612 -35.1611 -35.1610 -35.1609
   -35.1608 -35.1608 -35.1606 -35.1606 -35.1605 -35.1604 -26.0362 -26.0360
   -26.0356 -26.0356 -26.0280 -26.0275 -26.0093 -26.0088 -25.9980 -25.9978
   -25.9974 -25.9974 -25.9376 -25.9371 -25.9337 -25.9335 -25.9332 -25.9332
   -25.9316 -25.9312 -25.9206 -25.9203 -25.9135 -25.9133 -25.9130 -25.9130
   -25.9127 -25.9122 -25.9122 -25.9121 -25.9104 -25.9102 -25.9099 -25.9099
   -25.8963 -25.8958 -25.8958 -25.8958 -25.8954 -25.8950 -25.8905 -25.8901
   -25.8898 -25.8898 -25.8898 -25.8896 -25.8878 -25.8876 -25.8805 -25.8803
   -25.8800 -25.8800 -25.8695 -25.8691  -2.0533  -1.8882  -1.7097  -1.7083
    -1.5518  -1.5502  -0.9640  -0.8957  -0.8944  -0.7853  -0.7846  -0.7752
    -0.7738  -0.7009  -0.5523  -0.5515  -0.5367  -0.5078  -0.5064  -0.4502
    -0.4312  -0.4298  -0.3729  -0.3672  -0.3666  -0.3160  -0.2206  -0.2197
    -0.1837  -0.1817  -0.1813  -0.1073  -0.1023  -0.1018  -0.0870  -0.0502
     6.2461   6.2469   6.2998   6.4438   6.4448   6.4700   6.6458   6.7139
     6.7147   6.9349   6.9923   7.0348   7.0357   7.0401   7.1879   7.1887
     7.3115   7.3506   7.3989   7.3998   7.4093   7.4103   7.4558   7.4563
     7.5092   7.6262   7.7957   7.7967   7.9150   7.9157   8.0738   8.0749
     8.1345   8.1521   8.1533   8.2122   8.3336   8.3487   8.3491   8.3642
     8.3643   8.4247   8.4250   8.5140   8.5459   8.5474   8.8859   8.9573
     8.9582   8.9818   8.9824   9.1026   9.1170   9.1269   9.1478   9.2484
     9.2707   9.2717   9.3068   9.3210   9.3221   9.3298   9.3679   9.3688
     9.4042   9.4366   9.4367   9.5755   9.7954   9.8511   9.8524   9.8949
     9.8960   9.9913   9.9928   9.9938   9.9946  10.1022  10.1697  10.1901
    10.2381  10.2907  10.2919  10.3985  10.3990  10.4309  10.4350  10.4355
    10.4452  10.4460  10.4666  10.5049  10.5074  10.5825  10.5833  10.6708
    10.7004  10.7011  10.7833  10.7842  10.8788  10.8799  11.0073  11.0093
    11.0820  11.3942  11.3953  11.5007  11.6477  11.6483  11.6575  11.6585
    11.6730  11.6735  11.7596  11.7607  11.7749  11.7757  11.8112  11.8120
    11.8230  11.8919  11.9014  12.0711  12.1244  12.2687

          k = 0.2500-0.1443 0.1957 ( 92754 PWs)   bands (ev):

   -61.7367 -61.7365 -61.7337 -61.7334 -61.7327 -61.7322 -61.7322 -61.7322
   -61.7310 -61.7309 -61.7307 -61.7307 -61.7303 -61.7303 -61.7292 -61.7291
   -61.7291 -61.7285 -35.2224 -35.2224 -35.2199 -35.2198 -35.2196 -35.2196
   -35.2195 -35.2195 -35.2194 -35.2193 -35.2193 -35.2192 -35.2191 -35.2191
   -35.2191 -35.2190 -35.2190 -35.2190 -35.2189 -35.2189 -35.2189 -35.2189
   -35.2189 -35.2188 -35.2187 -35.2186 -35.2186 -35.2186 -35.2185 -35.2185
   -35.2184 -35.2184 -35.2183 -35.2183 -35.2182 -35.2181 -35.2181 -35.2181
   -35.2179 -35.2177 -35.2176 -35.2174 -35.2174 -35.2174 -35.2173 -35.2173
   -35.2172 -35.2170 -35.2170 -35.2170 -35.2169 -35.2169 -35.2168 -35.2167
   -35.2167 -35.2166 -35.2166 -35.2166 -35.2165 -35.2164 -35.2164 -35.2164
   -35.2163 -35.2163 -35.2162 -35.2162 -35.2162 -35.2160 -35.2159 -35.2159
   -35.2159 -35.2156 -35.1834 -35.1830 -35.1816 -35.1816 -35.1812 -35.1811
   -35.1810 -35.1810 -35.1810 -35.1810 -35.1809 -35.1808 -35.1808 -35.1807
   -35.1807 -35.1806 -35.1805 -35.1805 -35.1805 -35.1804 -35.1804 -35.1804
   -35.1803 -35.1803 -35.1803 -35.1803 -35.1802 -35.1802 -35.1802 -35.1802
   -35.1802 -35.1802 -35.1801 -35.1801 -35.1801 -35.1800 -35.1800 -35.1800
   -35.1799 -35.1799 -35.1798 -35.1798 -35.1798 -35.1798 -35.1798 -35.1797
   -35.1797 -35.1797 -35.1796 -35.1796 -35.1796 -35.1794 -35.1794 -35.1794
   -35.1794 -35.1793 -35.1792 -35.1792 -35.1791 -35.1791 -35.1791 -35.1790
   -35.1789 -35.1788 -35.1788 -35.1787 -35.1787 -35.1787 -35.1786 -35.1785
   -35.1785 -35.1784 -35.1658 -35.1649 -35.1645 -35.1645 -35.1642 -35.1641
   -35.1639 -35.1639 -35.1638 -35.1637 -35.1637 -35.1637 -35.1635 -35.1634
   -35.1633 -35.1632 -35.1630 -35.1630 -35.1627 -35.1621 -35.1621 -35.1619
   -35.1616 -35.1614 -35.1614 -35.1613 -35.1611 -35.1611 -35.1611 -35.1610
   -35.1608 -35.1608 -35.1607 -35.1606 -35.1604 -35.1604 -26.0308 -26.0303
   -26.0148 -26.0144 -26.0141 -26.0141 -26.0119 -26.0116 -26.0113 -26.0113
   -25.9773 -25.9770 -25.9767 -25.9767 -25.9556 -25.9555 -25.9552 -25.9552
   -25.9525 -25.9520 -25.9253 -25.9250 -25.9090 -25.9087 -25.9040 -25.9040
   -25.9036 -25.9036 -25.9030 -25.9029 -25.9027 -25.9027 -25.9006 -25.9002
   -25.8948 -25.8948 -25.8946 -25.8945 -25.8931 -25.8930 -25.8926 -25.8926
   -25.8925 -25.8923 -25.8866 -25.8865 -25.8864 -25.8864 -25.8821 -25.8817
   -25.8730 -25.8726 -25.8635 -25.8631  -2.2384  -2.0708  -1.5517  -1.3984
    -1.2632  -1.2617  -1.1213  -1.1197  -1.0607  -0.8127  -0.8113  -0.7826
    -0.7043  -0.7002  -0.6987  -0.6687  -0.5717  -0.5557  -0.5553  -0.4863
    -0.3673  -0.3667  -0.3301  -0.3296  -0.3005  -0.2992  -0.2632  -0.2551
    -0.2538  -0.1977  -0.1971  -0.1556  -0.0634  -0.0628  -0.0165  -0.0157
     6.0655   6.3232   6.5271   6.6492   6.6496   6.8188   6.8490   6.8495
     6.8606   6.8878   6.8886   6.9848   6.9856   7.0591   7.0599   7.2098
     7.2104   7.3295   7.3306   7.4589   7.4592   7.4738   7.5073   7.5857
     7.6769   7.6772   7.6909   7.6921   7.7156   7.7159   7.9671   7.9673
     8.0379   8.0561   8.0814   8.0820   8.1601   8.2496   8.2499   8.4252
     8.4266   8.4868   8.4877   8.5283   8.5290   8.5345   8.6403   8.6407
     8.6672   8.6678   8.7208   8.8437   8.8446   9.0605   9.1726   9.1738
     9.3031   9.3049   9.3247   9.3261   9.4045   9.4410   9.4421   9.4621
     9.4624   9.4782   9.5244   9.6213   9.6410   9.6550   9.6565  10.0079
    10.0120  10.0316  10.0725  10.2200  10.2205  10.2685  10.4305  10.4314
    10.4406  10.4413  10.4523  10.4529  10.5109  10.5116  10.5342  10.5344
    10.5542  10.5554  10.5951  10.6006  10.6216  10.6224  10.6638  10.7473
    10.7476  10.7614  10.7622  10.8363  10.8838  11.0385  11.0427  11.0431
    11.1284  11.1322  11.2375  11.2854  11.4076  11.4238  11.4752  11.4755
    11.5301  11.5317  11.5322  11.5333  11.5336  11.6002  11.6094  11.6098
    12.0676  12.0678  12.2153  12.2155  12.3037  12.6041

          k =-0.2500-0.4330 0.1957 ( 92753 PWs)   bands (ev):

   -61.7359 -61.7356 -61.7345 -61.7340 -61.7340 -61.7339 -61.7314 -61.7311
   -61.7309 -61.7309 -61.7304 -61.7300 -61.7298 -61.7298 -61.7298 -61.7294
   -61.7293 -61.7286 -35.2224 -35.2223 -35.2198 -35.2196 -35.2195 -35.2195
   -35.2194 -35.2194 -35.2193 -35.2193 -35.2192 -35.2191 -35.2191 -35.2191
   -35.2190 -35.2190 -35.2189 -35.2188 -35.2188 -35.2188 -35.2188 -35.2188
   -35.2187 -35.2187 -35.2187 -35.2187 -35.2187 -35.2186 -35.2186 -35.2185
   -35.2184 -35.2184 -35.2183 -35.2183 -35.2183 -35.2182 -35.2182 -35.2182
   -35.2181 -35.2180 -35.2180 -35.2178 -35.2178 -35.2178 -35.2177 -35.2177
   -35.2173 -35.2173 -35.2173 -35.2171 -35.2170 -35.2169 -35.2169 -35.2167
   -35.2166 -35.2165 -35.2165 -35.2164 -35.2164 -35.2163 -35.2163 -35.2163
   -35.2162 -35.2162 -35.2161 -35.2160 -35.2159 -35.2158 -35.2158 -35.2158
   -35.2155 -35.2155 -35.1834 -35.1830 -35.1815 -35.1815 -35.1813 -35.1812
   -35.1811 -35.1810 -35.1809 -35.1809 -35.1809 -35.1808 -35.1808 -35.1807
   -35.1807 -35.1806 -35.1806 -35.1806 -35.1805 -35.1805 -35.1805 -35.1805
   -35.1804 -35.1804 -35.1804 -35.1803 -35.1803 -35.1803 -35.1803 -35.1802
   -35.1802 -35.1801 -35.1801 -35.1800 -35.1800 -35.1800 -35.1800 -35.1799
   -35.1799 -35.1798 -35.1798 -35.1798 -35.1797 -35.1797 -35.1797 -35.1797
   -35.1796 -35.1796 -35.1796 -35.1796 -35.1795 -35.1794 -35.1794 -35.1794
   -35.1793 -35.1793 -35.1792 -35.1792 -35.1792 -35.1790 -35.1790 -35.1790
   -35.1789 -35.1789 -35.1788 -35.1788 -35.1788 -35.1787 -35.1787 -35.1785
   -35.1785 -35.1784 -35.1658 -35.1649 -35.1646 -35.1644 -35.1643 -35.1641
   -35.1640 -35.1640 -35.1639 -35.1638 -35.1637 -35.1635 -35.1634 -35.1634
   -35.1632 -35.1632 -35.1631 -35.1630 -35.1625 -35.1623 -35.1621 -35.1619
   -35.1616 -35.1616 -35.1615 -35.1613 -35.1612 -35.1611 -35.1610 -35.1609
   -35.1608 -35.1608 -35.1606 -35.1606 -35.1605 -35.1604 -26.0362 -26.0360
   -26.0356 -26.0356 -26.0280 -26.0275 -26.0093 -26.0088 -25.9980 -25.9978
   -25.9974 -25.9974 -25.9376 -25.9371 -25.9337 -25.9335 -25.9332 -25.9332
   -25.9316 -25.9312 -25.9206 -25.9203 -25.9135 -25.9133 -25.9130 -25.9130
   -25.9127 -25.9122 -25.9122 -25.9121 -25.9104 -25.9102 -25.9099 -25.9099
   -25.8963 -25.8958 -25.8958 -25.8958 -25.8954 -25.8950 -25.8905 -25.8901
   -25.8898 -25.8898 -25.8898 -25.8896 -25.8878 -25.8876 -25.8805 -25.8803
   -25.8800 -25.8800 -25.8695 -25.8691  -2.0533  -1.8882  -1.7097  -1.7083
    -1.5518  -1.5502  -0.9640  -0.8957  -0.8944  -0.7853  -0.7846  -0.7751
    -0.7738  -0.7009  -0.5523  -0.5515  -0.5367  -0.5078  -0.5064  -0.4501
    -0.4312  -0.4298  -0.3729  -0.3672  -0.3666  -0.3160  -0.2206  -0.2197
    -0.1838  -0.1817  -0.1813  -0.1073  -0.1023  -0.1018  -0.0870  -0.0502
     6.2461   6.2469   6.2998   6.4438   6.4448   6.4700   6.6457   6.7138
     6.7147   6.9349   6.9923   7.0348   7.0357   7.0401   7.1880   7.1887
     7.3116   7.3506   7.3990   7.3998   7.4094   7.4103   7.4558   7.4564
     7.5093   7.6261   7.7957   7.7968   7.9150   7.9155   8.0737   8.0750
     8.1343   8.1521   8.1533   8.2121   8.3338   8.3488   8.3489   8.3643
     8.3644   8.4247   8.4248   8.5142   8.5459   8.5473   8.8858   8.9574
     8.9579   8.9819   8.9826   9.1023   9.1170   9.1269   9.1478   9.2485
     9.2709   9.2716   9.3070   9.3209   9.3221   9.3299   9.3679   9.3687
     9.4041   9.4365   9.4369   9.5756   9.7953   9.8510   9.8524   9.8948
     9.8960   9.9915   9.9928   9.9938   9.9946  10.1021  10.1697  10.1901
    10.2382  10.2908  10.2919  10.3984  10.3990  10.4309  10.4350  10.4355
    10.4452  10.4460  10.4668  10.5050  10.5073  10.5825  10.5834  10.6706
    10.7004  10.7010  10.7832  10.7840  10.8789  10.8801  11.0072  11.0092
    11.0819  11.3941  11.3954  11.5009  11.6476  11.6482  11.6574  11.6586
    11.6730  11.6735  11.7597  11.7607  11.7748  11.7759  11.8112  11.8120
    11.8230  11.8919  11.9015  12.0711  12.1242  12.2687

          k =-0.2500 0.4330-0.1957 ( 92753 PWs)   bands (ev):

   -61.7359 -61.7356 -61.7346 -61.7340 -61.7340 -61.7339 -61.7315 -61.7309
   -61.7309 -61.7309 -61.7304 -61.7301 -61.7298 -61.7298 -61.7298 -61.7294
   -61.7293 -61.7285 -35.2224 -35.2224 -35.2198 -35.2196 -35.2195 -35.2195
   -35.2194 -35.2194 -35.2193 -35.2192 -35.2192 -35.2191 -35.2191 -35.2191
   -35.2190 -35.2190 -35.2189 -35.2189 -35.2188 -35.2188 -35.2188 -35.2188
   -35.2187 -35.2187 -35.2187 -35.2187 -35.2186 -35.2186 -35.2185 -35.2185
   -35.2184 -35.2184 -35.2183 -35.2183 -35.2183 -35.2182 -35.2182 -35.2181
   -35.2181 -35.2180 -35.2180 -35.2178 -35.2178 -35.2178 -35.2178 -35.2177
   -35.2173 -35.2173 -35.2173 -35.2171 -35.2170 -35.2169 -35.2169 -35.2167
   -35.2166 -35.2165 -35.2165 -35.2165 -35.2164 -35.2163 -35.2163 -35.2163
   -35.2163 -35.2162 -35.2161 -35.2160 -35.2159 -35.2158 -35.2158 -35.2158
   -35.2155 -35.2155 -35.1834 -35.1830 -35.1815 -35.1815 -35.1813 -35.1813
   -35.1811 -35.1810 -35.1810 -35.1809 -35.1809 -35.1808 -35.1808 -35.1807
   -35.1807 -35.1806 -35.1806 -35.1806 -35.1805 -35.1805 -35.1805 -35.1804
   -35.1804 -35.1804 -35.1804 -35.1804 -35.1803 -35.1803 -35.1803 -35.1802
   -35.1801 -35.1801 -35.1801 -35.1800 -35.1800 -35.1800 -35.1799 -35.1799
   -35.1799 -35.1798 -35.1798 -35.1798 -35.1797 -35.1797 -35.1797 -35.1796
   -35.1796 -35.1796 -35.1796 -35.1795 -35.1795 -35.1795 -35.1794 -35.1793
   -35.1793 -35.1792 -35.1792 -35.1792 -35.1792 -35.1790 -35.1790 -35.1790
   -35.1789 -35.1789 -35.1789 -35.1788 -35.1788 -35.1787 -35.1787 -35.1786
   -35.1785 -35.1784 -35.1658 -35.1648 -35.1647 -35.1644 -35.1643 -35.1641
   -35.1640 -35.1640 -35.1639 -35.1638 -35.1637 -35.1635 -35.1634 -35.1634
   -35.1632 -35.1632 -35.1631 -35.1630 -35.1625 -35.1622 -35.1621 -35.1619
   -35.1616 -35.1616 -35.1615 -35.1613 -35.1612 -35.1611 -35.1610 -35.1608
   -35.1608 -35.1608 -35.1606 -35.1606 -35.1605 -35.1604 -26.0362 -26.0360
   -26.0356 -26.0356 -26.0279 -26.0275 -26.0093 -26.0088 -25.9981 -25.9976
   -25.9974 -25.9974 -25.9375 -25.9371 -25.9337 -25.9334 -25.9332 -25.9332
   -25.9317 -25.9312 -25.9206 -25.9203 -25.9135 -25.9134 -25.9130 -25.9130
   -25.9126 -25.9122 -25.9122 -25.9122 -25.9105 -25.9100 -25.9099 -25.9099
   -25.8963 -25.8959 -25.8958 -25.8958 -25.8955 -25.8950 -25.8905 -25.8900
   -25.8898 -25.8898 -25.8898 -25.8896 -25.8878 -25.8876 -25.8805 -25.8803
   -25.8800 -25.8800 -25.8695 -25.8691  -2.0533  -1.8882  -1.7097  -1.7083
    -1.5518  -1.5502  -0.9640  -0.8959  -0.8944  -0.7853  -0.7846  -0.7753
    -0.7738  -0.7009  -0.5522  -0.5515  -0.5366  -0.5075  -0.5064  -0.4501
    -0.4310  -0.4298  -0.3731  -0.3670  -0.3666  -0.3161  -0.2203  -0.2197
    -0.1839  -0.1818  -0.1813  -0.1071  -0.1026  -0.1018  -0.0872  -0.0499
     6.2461   6.2467   6.2999   6.4438   6.4444   6.4703   6.6461   6.7139
     6.7146   6.9349   6.9922   7.0351   7.0355   7.0402   7.1881   7.1888
     7.3112   7.3505   7.3991   7.3998   7.4093   7.4103   7.4561   7.4565
     7.5096   7.6264   7.7958   7.7963   7.9151   7.9156   8.0744   8.0748
     8.1340   8.1516   8.1532   8.2124   8.3335   8.3482   8.3491   8.3641
     8.3644   8.4245   8.4251   8.5137   8.5465   8.5471   8.8856   8.9574
     8.9580   8.9814   8.9828   9.1023   9.1173   9.1269   9.1480   9.2481
     9.2708   9.2716   9.3064   9.3216   9.3221   9.3296   9.3678   9.3688
     9.4045   9.4357   9.4372   9.5754   9.7953   9.8510   9.8527   9.8952
     9.8958   9.9915   9.9926   9.9940   9.9950  10.1014  10.1694  10.1899
    10.2388  10.2907  10.2914  10.3986  10.3990  10.4320  10.4350  10.4354
    10.4452  10.4458  10.4665  10.5058  10.5076  10.5827  10.5832  10.6709
    10.7005  10.7013  10.7831  10.7848  10.8790  10.8795  11.0076  11.0090
    11.0816  11.3942  11.3950  11.5007  11.6478  11.6484  11.6572  11.6581
    11.6731  11.6738  11.7597  11.7609  11.7751  11.7757  11.8110  11.8120
    11.8229  11.8921  11.9013  12.0712  12.1243  12.2683

          k = 0.2500-0.4330-0.1957 ( 92753 PWs)   bands (ev):

   -61.7359 -61.7356 -61.7346 -61.7340 -61.7340 -61.7339 -61.7315 -61.7309
   -61.7309 -61.7309 -61.7304 -61.7301 -61.7298 -61.7298 -61.7298 -61.7294
   -61.7293 -61.7285 -35.2224 -35.2224 -35.2198 -35.2196 -35.2195 -35.2195
   -35.2194 -35.2194 -35.2194 -35.2192 -35.2192 -35.2191 -35.2191 -35.2191
   -35.2190 -35.2190 -35.2189 -35.2189 -35.2188 -35.2188 -35.2188 -35.2188
   -35.2187 -35.2187 -35.2187 -35.2186 -35.2186 -35.2186 -35.2185 -35.2185
   -35.2184 -35.2184 -35.2183 -35.2183 -35.2183 -35.2182 -35.2182 -35.2181
   -35.2181 -35.2180 -35.2180 -35.2178 -35.2178 -35.2178 -35.2178 -35.2177
   -35.2173 -35.2173 -35.2173 -35.2171 -35.2170 -35.2169 -35.2169 -35.2167
   -35.2166 -35.2165 -35.2165 -35.2165 -35.2164 -35.2163 -35.2163 -35.2163
   -35.2163 -35.2162 -35.2161 -35.2160 -35.2159 -35.2158 -35.2158 -35.2158
   -35.2155 -35.2155 -35.1834 -35.1830 -35.1815 -35.1815 -35.1813 -35.1813
   -35.1811 -35.1810 -35.1810 -35.1809 -35.1809 -35.1808 -35.1808 -35.1807
   -35.1807 -35.1806 -35.1806 -35.1806 -35.1805 -35.1805 -35.1805 -35.1804
   -35.1804 -35.1804 -35.1804 -35.1804 -35.1803 -35.1803 -35.1803 -35.1802
   -35.1801 -35.1801 -35.1801 -35.1800 -35.1800 -35.1800 -35.1799 -35.1799
   -35.1799 -35.1798 -35.1798 -35.1798 -35.1797 -35.1797 -35.1797 -35.1796
   -35.1796 -35.1796 -35.1796 -35.1795 -35.1795 -35.1795 -35.1794 -35.1793
   -35.1793 -35.1792 -35.1792 -35.1792 -35.1792 -35.1790 -35.1790 -35.1790
   -35.1789 -35.1789 -35.1789 -35.1788 -35.1788 -35.1787 -35.1787 -35.1786
   -35.1785 -35.1784 -35.1658 -35.1648 -35.1647 -35.1644 -35.1643 -35.1641
   -35.1640 -35.1640 -35.1639 -35.1638 -35.1637 -35.1635 -35.1634 -35.1634
   -35.1632 -35.1632 -35.1631 -35.1630 -35.1625 -35.1622 -35.1621 -35.1619
   -35.1616 -35.1615 -35.1615 -35.1613 -35.1612 -35.1611 -35.1610 -35.1608
   -35.1608 -35.1608 -35.1606 -35.1606 -35.1605 -35.1604 -26.0362 -26.0360
   -26.0356 -26.0356 -26.0279 -26.0275 -26.0093 -26.0088 -25.9981 -25.9976
   -25.9974 -25.9974 -25.9375 -25.9371 -25.9337 -25.9334 -25.9332 -25.9332
   -25.9317 -25.9312 -25.9206 -25.9203 -25.9135 -25.9134 -25.9130 -25.9130
   -25.9126 -25.9122 -25.9122 -25.9122 -25.9105 -25.9100 -25.9099 -25.9099
   -25.8963 -25.8959 -25.8958 -25.8958 -25.8955 -25.8950 -25.8905 -25.8900
   -25.8898 -25.8898 -25.8898 -25.8896 -25.8878 -25.8876 -25.8805 -25.8803
   -25.8800 -25.8800 -25.8695 -25.8691  -2.0533  -1.8882  -1.7097  -1.7083
    -1.5518  -1.5502  -0.9640  -0.8959  -0.8944  -0.7853  -0.7846  -0.7753
    -0.7738  -0.7009  -0.5523  -0.5515  -0.5366  -0.5075  -0.5064  -0.4500
    -0.4310  -0.4298  -0.3731  -0.3670  -0.3666  -0.3161  -0.2203  -0.2197
    -0.1839  -0.1818  -0.1813  -0.1072  -0.1026  -0.1018  -0.0872  -0.0499
     6.2461   6.2466   6.2999   6.4438   6.4444   6.4703   6.6460   6.7139
     6.7146   6.9348   6.9923   7.0351   7.0354   7.0402   7.1882   7.1888
     7.3112   7.3505   7.3992   7.3998   7.4094   7.4103   7.4560   7.4566
     7.5096   7.6264   7.7958   7.7964   7.9151   7.9154   8.0745   8.0748
     8.1339   8.1517   8.1532   8.2123   8.3337   8.3481   8.3492   8.3641
     8.3645   8.4245   8.4250   8.5139   8.5465   8.5470   8.8855   8.9572
     8.9581   8.9817   8.9827   9.1020   9.1172   9.1268   9.1480   9.2483
     9.2710   9.2716   9.3065   9.3215   9.3221   9.3298   9.3677   9.3689
     9.4044   9.4358   9.4372   9.5755   9.7952   9.8509   9.8527   9.8951
     9.8958   9.9917   9.9927   9.9940   9.9950  10.1013  10.1694  10.1899
    10.2389  10.2908  10.2913  10.3985  10.3989  10.4320  10.4350  10.4354
    10.4450  10.4460  10.4667  10.5059  10.5075  10.5826  10.5833  10.6707
    10.7004  10.7013  10.7831  10.7846  10.8791  10.8797  11.0076  11.0089
    11.0815  11.3942  11.3951  11.5009  11.6478  11.6483  11.6571  11.6582
    11.6731  11.6738  11.7599  11.7606  11.7750  11.7759  11.8110  11.8119
    11.8229  11.8921  11.9014  12.0712  12.1241  12.2684

          k = 0.5000-0.0000 0.1957 ( 92753 PWs)   bands (ev):

   -61.7359 -61.7356 -61.7345 -61.7340 -61.7340 -61.7339 -61.7314 -61.7310
   -61.7309 -61.7309 -61.7304 -61.7301 -61.7298 -61.7298 -61.7298 -61.7294
   -61.7293 -61.7286 -35.2224 -35.2223 -35.2198 -35.2198 -35.2195 -35.2195
   -35.2194 -35.2194 -35.2193 -35.2192 -35.2192 -35.2191 -35.2191 -35.2190
   -35.2190 -35.2190 -35.2189 -35.2189 -35.2188 -35.2188 -35.2188 -35.2187
   -35.2187 -35.2187 -35.2187 -35.2187 -35.2186 -35.2186 -35.2186 -35.2185
   -35.2184 -35.2184 -35.2184 -35.2183 -35.2182 -35.2182 -35.2182 -35.2182
   -35.2181 -35.2180 -35.2180 -35.2179 -35.2178 -35.2178 -35.2178 -35.2177
   -35.2173 -35.2173 -35.2172 -35.2171 -35.2170 -35.2169 -35.2168 -35.2167
   -35.2166 -35.2165 -35.2165 -35.2165 -35.2164 -35.2163 -35.2163 -35.2163
   -35.2162 -35.2162 -35.2161 -35.2160 -35.2159 -35.2158 -35.2158 -35.2158
   -35.2155 -35.2155 -35.1834 -35.1830 -35.1815 -35.1815 -35.1812 -35.1812
   -35.1812 -35.1811 -35.1810 -35.1809 -35.1809 -35.1808 -35.1808 -35.1807
   -35.1807 -35.1806 -35.1806 -35.1805 -35.1805 -35.1805 -35.1805 -35.1804
   -35.1804 -35.1804 -35.1804 -35.1803 -35.1803 -35.1803 -35.1803 -35.1802
   -35.1801 -35.1801 -35.1801 -35.1800 -35.1800 -35.1800 -35.1799 -35.1799
   -35.1799 -35.1798 -35.1798 -35.1798 -35.1798 -35.1797 -35.1797 -35.1796
   -35.1796 -35.1796 -35.1796 -35.1795 -35.1795 -35.1794 -35.1794 -35.1793
   -35.1793 -35.1793 -35.1792 -35.1792 -35.1792 -35.1791 -35.1790 -35.1790
   -35.1789 -35.1789 -35.1789 -35.1788 -35.1788 -35.1788 -35.1787 -35.1786
   -35.1785 -35.1784 -35.1658 -35.1649 -35.1646 -35.1644 -35.1643 -35.1641
   -35.1640 -35.1640 -35.1639 -35.1638 -35.1637 -35.1635 -35.1634 -35.1634
   -35.1632 -35.1632 -35.1631 -35.1630 -35.1626 -35.1622 -35.1621 -35.1619
   -35.1616 -35.1615 -35.1615 -35.1614 -35.1612 -35.1611 -35.1610 -35.1609
   -35.1608 -35.1608 -35.1606 -35.1606 -35.1605 -35.1604 -26.0362 -26.0360
   -26.0356 -26.0356 -26.0280 -26.0275 -26.0093 -26.0088 -25.9981 -25.9977
   -25.9974 -25.9974 -25.9376 -25.9371 -25.9337 -25.9335 -25.9332 -25.9332
   -25.9316 -25.9312 -25.9206 -25.9203 -25.9135 -25.9134 -25.9130 -25.9130
   -25.9126 -25.9122 -25.9122 -25.9122 -25.9104 -25.9101 -25.9099 -25.9099
   -25.8963 -25.8958 -25.8958 -25.8958 -25.8954 -25.8950 -25.8905 -25.8901
   -25.8898 -25.8898 -25.8898 -25.8896 -25.8878 -25.8876 -25.8805 -25.8803
   -25.8800 -25.8800 -25.8695 -25.8691  -2.0533  -1.8882  -1.7096  -1.7084
    -1.5517  -1.5503  -0.9640  -0.8957  -0.8945  -0.7850  -0.7849  -0.7752
    -0.7738  -0.7009  -0.5521  -0.5517  -0.5367  -0.5076  -0.5064  -0.4501
    -0.4311  -0.4298  -0.3730  -0.3670  -0.3667  -0.3160  -0.2204  -0.2198
    -0.1838  -0.1818  -0.1813  -0.1072  -0.1024  -0.1017  -0.0871  -0.0501
     6.2461   6.2468   6.2998   6.4438   6.4446   6.4701   6.6459   6.7141
     6.7145   6.9349   6.9922   7.0350   7.0356   7.0402   7.1881   7.1887
     7.3114   7.3506   7.3990   7.3999   7.4093   7.4102   7.4560   7.4564
     7.5094   7.6263   7.7957   7.7964   7.9150   7.9157   8.0740   8.0749
     8.1343   8.1519   8.1531   8.2124   8.3335   8.3486   8.3491   8.3641
     8.3643   8.4246   8.4250   8.5138   8.5462   8.5473   8.8859   8.9574
     8.9581   8.9816   8.9826   9.1026   9.1172   9.1269   9.1478   9.2481
     9.2706   9.2717   9.3065   9.3213   9.3221   9.3296   9.3680   9.3687
     9.4044   9.4361   9.4369   9.5754   9.7954   9.8512   9.8524   9.8951
     9.8959   9.9912   9.9927   9.9941   9.9947  10.1019  10.1696  10.1900
    10.2384  10.2905  10.2918  10.3985  10.3990  10.4315  10.4350  10.4354
    10.4452  10.4460  10.4665  10.5054  10.5076  10.5827  10.5831  10.6709
    10.7005  10.7012  10.7832  10.7846  10.8789  10.8796  11.0075  11.0091
    11.0818  11.3942  11.3951  11.5006  11.6477  11.6484  11.6574  11.6582
    11.6730  11.6736  11.7596  11.7608  11.7750  11.7756  11.8111  11.8120
    11.8230  11.8920  11.9013  12.0712  12.1245  12.2685

          k =-0.5000 0.0000 0.1957 ( 92753 PWs)   bands (ev):

   -61.7359 -61.7356 -61.7345 -61.7340 -61.7340 -61.7339 -61.7314 -61.7310
   -61.7309 -61.7309 -61.7304 -61.7301 -61.7298 -61.7298 -61.7298 -61.7294
   -61.7293 -61.7286 -35.2224 -35.2223 -35.2198 -35.2198 -35.2195 -35.2195
   -35.2194 -35.2194 -35.2193 -35.2192 -35.2192 -35.2191 -35.2191 -35.2190
   -35.2190 -35.2190 -35.2189 -35.2189 -35.2188 -35.2188 -35.2188 -35.2187
   -35.2187 -35.2187 -35.2187 -35.2187 -35.2186 -35.2186 -35.2186 -35.2185
   -35.2184 -35.2184 -35.2184 -35.2183 -35.2182 -35.2182 -35.2182 -35.2182
   -35.2181 -35.2180 -35.2180 -35.2179 -35.2178 -35.2178 -35.2178 -35.2177
   -35.2173 -35.2173 -35.2172 -35.2171 -35.2170 -35.2169 -35.2168 -35.2167
   -35.2166 -35.2165 -35.2165 -35.2165 -35.2164 -35.2163 -35.2163 -35.2163
   -35.2162 -35.2162 -35.2161 -35.2160 -35.2159 -35.2158 -35.2158 -35.2158
   -35.2155 -35.2155 -35.1834 -35.1830 -35.1815 -35.1815 -35.1812 -35.1812
   -35.1812 -35.1811 -35.1810 -35.1809 -35.1809 -35.1808 -35.1808 -35.1807
   -35.1807 -35.1806 -35.1806 -35.1805 -35.1805 -35.1805 -35.1805 -35.1805
   -35.1804 -35.1804 -35.1804 -35.1803 -35.1803 -35.1803 -35.1803 -35.1802
   -35.1801 -35.1801 -35.1801 -35.1800 -35.1800 -35.1800 -35.1800 -35.1799
   -35.1799 -35.1798 -35.1798 -35.1798 -35.1798 -35.1797 -35.1797 -35.1796
   -35.1796 -35.1796 -35.1796 -35.1795 -35.1795 -35.1795 -35.1794 -35.1793
   -35.1793 -35.1793 -35.1792 -35.1792 -35.1792 -35.1791 -35.1790 -35.1790
   -35.1789 -35.1789 -35.1789 -35.1788 -35.1788 -35.1788 -35.1787 -35.1786
   -35.1785 -35.1784 -35.1658 -35.1649 -35.1646 -35.1644 -35.1643 -35.1641
   -35.1640 -35.1640 -35.1639 -35.1638 -35.1637 -35.1635 -35.1634 -35.1634
   -35.1632 -35.1632 -35.1631 -35.1630 -35.1626 -35.1622 -35.1621 -35.1619
   -35.1616 -35.1615 -35.1615 -35.1614 -35.1612 -35.1611 -35.1610 -35.1609
   -35.1608 -35.1608 -35.1606 -35.1606 -35.1605 -35.1604 -26.0362 -26.0360
   -26.0356 -26.0356 -26.0280 -26.0275 -26.0093 -26.0088 -25.9981 -25.9977
   -25.9974 -25.9974 -25.9376 -25.9371 -25.9337 -25.9335 -25.9332 -25.9332
   -25.9316 -25.9312 -25.9206 -25.9203 -25.9135 -25.9134 -25.9130 -25.9130
   -25.9126 -25.9122 -25.9122 -25.9122 -25.9104 -25.9101 -25.9099 -25.9099
   -25.8963 -25.8958 -25.8958 -25.8958 -25.8954 -25.8950 -25.8905 -25.8901
   -25.8898 -25.8898 -25.8898 -25.8896 -25.8878 -25.8876 -25.8805 -25.8803
   -25.8800 -25.8800 -25.8695 -25.8691  -2.0533  -1.8882  -1.7096  -1.7084
    -1.5517  -1.5503  -0.9640  -0.8957  -0.8945  -0.7851  -0.7849  -0.7751
    -0.7738  -0.7009  -0.5521  -0.5517  -0.5367  -0.5076  -0.5064  -0.4501
    -0.4311  -0.4298  -0.3730  -0.3670  -0.3667  -0.3160  -0.2204  -0.2198
    -0.1839  -0.1817  -0.1813  -0.1072  -0.1024  -0.1017  -0.0871  -0.0500
     6.2461   6.2468   6.2999   6.4438   6.4446   6.4702   6.6459   6.7140
     6.7145   6.9348   6.9923   7.0350   7.0355   7.0401   7.1881   7.1887
     7.3114   7.3505   7.3991   7.3998   7.4096   7.4102   7.4558   7.4566
     7.5095   7.6262   7.7958   7.7966   7.9151   7.9153   8.0740   8.0750
     8.1340   8.1520   8.1531   8.2122   8.3339   8.3484   8.3490   8.3642
     8.3645   8.4246   8.4249   8.5142   8.5462   8.5471   8.8856   8.9573
     8.9579   8.9819   8.9826   9.1020   9.1171   9.1268   9.1479   9.2485
     9.2710   9.2717   9.3068   9.3211   9.3222   9.3299   9.3678   9.3687
     9.4042   9.4363   9.4369   9.5756   9.7951   9.8510   9.8524   9.8949
     9.8958   9.9915   9.9928   9.9942   9.9947  10.1017  10.1695  10.1900
    10.2386  10.2906  10.2918  10.3984  10.3989  10.4314  10.4351  10.4355
    10.4450  10.4461  10.4668  10.5054  10.5074  10.5825  10.5834  10.6706
    10.7004  10.7011  10.7831  10.7843  10.8790  10.8800  11.0074  11.0090
    11.0817  11.3941  11.3953  11.5010  11.6477  11.6483  11.6572  11.6584
    11.6730  11.6737  11.7599  11.7606  11.7749  11.7760  11.8111  11.8119
    11.8229  11.8920  11.9014  12.0711  12.1240  12.2686

          k =-0.2500 0.1443 0.1957 ( 92754 PWs)   bands (ev):

   -61.7367 -61.7365 -61.7337 -61.7334 -61.7327 -61.7322 -61.7322 -61.7322
   -61.7310 -61.7309 -61.7307 -61.7307 -61.7303 -61.7303 -61.7292 -61.7291
   -61.7291 -61.7285 -35.2224 -35.2224 -35.2199 -35.2198 -35.2196 -35.2196
   -35.2195 -35.2195 -35.2194 -35.2193 -35.2193 -35.2192 -35.2191 -35.2191
   -35.2191 -35.2190 -35.2190 -35.2190 -35.2189 -35.2189 -35.2189 -35.2189
   -35.2189 -35.2188 -35.2187 -35.2186 -35.2186 -35.2186 -35.2185 -35.2185
   -35.2184 -35.2184 -35.2183 -35.2183 -35.2182 -35.2181 -35.2181 -35.2181
   -35.2179 -35.2177 -35.2176 -35.2174 -35.2174 -35.2174 -35.2173 -35.2173
   -35.2172 -35.2170 -35.2170 -35.2170 -35.2169 -35.2169 -35.2168 -35.2167
   -35.2167 -35.2166 -35.2166 -35.2166 -35.2165 -35.2164 -35.2164 -35.2164
   -35.2163 -35.2163 -35.2162 -35.2162 -35.2162 -35.2160 -35.2159 -35.2159
   -35.2159 -35.2156 -35.1834 -35.1830 -35.1816 -35.1816 -35.1812 -35.1811
   -35.1810 -35.1810 -35.1810 -35.1810 -35.1809 -35.1808 -35.1808 -35.1807
   -35.1807 -35.1806 -35.1805 -35.1805 -35.1805 -35.1804 -35.1804 -35.1804
   -35.1803 -35.1803 -35.1803 -35.1803 -35.1802 -35.1802 -35.1802 -35.1802
   -35.1802 -35.1802 -35.1801 -35.1801 -35.1801 -35.1800 -35.1800 -35.1800
   -35.1799 -35.1799 -35.1798 -35.1798 -35.1798 -35.1798 -35.1798 -35.1797
   -35.1797 -35.1796 -35.1796 -35.1796 -35.1796 -35.1794 -35.1794 -35.1794
   -35.1794 -35.1793 -35.1792 -35.1792 -35.1792 -35.1791 -35.1791 -35.1790
   -35.1789 -35.1788 -35.1788 -35.1787 -35.1787 -35.1787 -35.1786 -35.1785
   -35.1785 -35.1784 -35.1658 -35.1649 -35.1645 -35.1645 -35.1642 -35.1641
   -35.1639 -35.1639 -35.1638 -35.1637 -35.1637 -35.1637 -35.1635 -35.1634
   -35.1633 -35.1632 -35.1630 -35.1630 -35.1627 -35.1621 -35.1621 -35.1619
   -35.1616 -35.1614 -35.1614 -35.1613 -35.1611 -35.1611 -35.1611 -35.1610
   -35.1608 -35.1608 -35.1607 -35.1606 -35.1604 -35.1604 -26.0308 -26.0303
   -26.0148 -26.0144 -26.0141 -26.0141 -26.0119 -26.0116 -26.0113 -26.0113
   -25.9773 -25.9770 -25.9767 -25.9767 -25.9556 -25.9555 -25.9552 -25.9552
   -25.9525 -25.9520 -25.9253 -25.9250 -25.9090 -25.9087 -25.9040 -25.9040
   -25.9036 -25.9036 -25.9030 -25.9029 -25.9027 -25.9027 -25.9006 -25.9002
   -25.8948 -25.8948 -25.8946 -25.8945 -25.8931 -25.8930 -25.8926 -25.8926
   -25.8925 -25.8923 -25.8866 -25.8865 -25.8864 -25.8864 -25.8821 -25.8817
   -25.8730 -25.8726 -25.8635 -25.8631  -2.2384  -2.0708  -1.5517  -1.3984
    -1.2632  -1.2617  -1.1213  -1.1197  -1.0607  -0.8127  -0.8113  -0.7827
    -0.7044  -0.7001  -0.6987  -0.6687  -0.5718  -0.5557  -0.5553  -0.4863
    -0.3673  -0.3667  -0.3301  -0.3296  -0.3006  -0.2992  -0.2632  -0.2550
    -0.2538  -0.1977  -0.1971  -0.1556  -0.0635  -0.0628  -0.0164  -0.0157
     6.0655   6.3233   6.5271   6.6492   6.6496   6.8187   6.8491   6.8496
     6.8604   6.8879   6.8887   6.9846   6.9855   7.0592   7.0600   7.2097
     7.2107   7.3297   7.3303   7.4587   7.4590   7.4743   7.5073   7.5858
     7.6771   7.6777   7.6907   7.6919   7.7151   7.7156   7.9674   7.9678
     8.0381   8.0560   8.0816   8.0819   8.1594   8.2492   8.2498   8.4262
     8.4266   8.4863   8.4879   8.5283   8.5286   8.5344   8.6405   8.6408
     8.6671   8.6681   8.7209   8.8432   8.8442   9.0606   9.1729   9.1736
     9.3040   9.3048   9.3247   9.3263   9.4045   9.4406   9.4421   9.4618
     9.4623   9.4782   9.5244   9.6215   9.6410   9.6553   9.6564  10.0079
    10.0120  10.0316  10.0725  10.2200  10.2210  10.2688  10.4305  10.4310
    10.4406  10.4407  10.4527  10.4534  10.5103  10.5117  10.5337  10.5345
    10.5550  10.5554  10.5951  10.6006  10.6214  10.6220  10.6638  10.7471
    10.7478  10.7611  10.7614  10.8363  10.8838  11.0388  11.0431  11.0437
    11.1282  11.1322  11.2375  11.2854  11.4080  11.4238  11.4747  11.4754
    11.5306  11.5318  11.5323  11.5335  11.5338  11.5999  11.6093  11.6096
    12.0676  12.0677  12.2154  12.2156  12.3034  12.6042

          k =-0.2500-0.1443-0.1957 ( 92754 PWs)   bands (ev):

   -61.7367 -61.7365 -61.7337 -61.7334 -61.7325 -61.7324 -61.7322 -61.7322
   -61.7311 -61.7308 -61.7307 -61.7307 -61.7303 -61.7303 -61.7291 -61.7291
   -61.7291 -61.7285 -35.2224 -35.2224 -35.2199 -35.2198 -35.2196 -35.2196
   -35.2195 -35.2195 -35.2194 -35.2193 -35.2192 -35.2192 -35.2192 -35.2191
   -35.2191 -35.2190 -35.2190 -35.2190 -35.2189 -35.2189 -35.2189 -35.2189
   -35.2189 -35.2188 -35.2187 -35.2187 -35.2186 -35.2185 -35.2185 -35.2185
   -35.2184 -35.2184 -35.2183 -35.2183 -35.2182 -35.2181 -35.2181 -35.2181
   -35.2179 -35.2177 -35.2176 -35.2174 -35.2174 -35.2174 -35.2173 -35.2173
   -35.2172 -35.2170 -35.2169 -35.2169 -35.2169 -35.2169 -35.2168 -35.2167
   -35.2167 -35.2166 -35.2166 -35.2166 -35.2165 -35.2164 -35.2164 -35.2164
   -35.2163 -35.2163 -35.2163 -35.2162 -35.2162 -35.2160 -35.2159 -35.2159
   -35.2159 -35.2156 -35.1834 -35.1830 -35.1816 -35.1816 -35.1811 -35.1811
   -35.1810 -35.1810 -35.1810 -35.1810 -35.1809 -35.1808 -35.1808 -35.1807
   -35.1807 -35.1806 -35.1806 -35.1805 -35.1804 -35.1804 -35.1804 -35.1804
   -35.1804 -35.1803 -35.1803 -35.1803 -35.1803 -35.1802 -35.1802 -35.1802
   -35.1802 -35.1802 -35.1801 -35.1801 -35.1801 -35.1800 -35.1800 -35.1799
   -35.1799 -35.1799 -35.1798 -35.1798 -35.1798 -35.1798 -35.1798 -35.1797
   -35.1797 -35.1797 -35.1796 -35.1796 -35.1796 -35.1795 -35.1794 -35.1794
   -35.1793 -35.1793 -35.1793 -35.1792 -35.1792 -35.1791 -35.1791 -35.1790
   -35.1789 -35.1788 -35.1788 -35.1787 -35.1787 -35.1786 -35.1786 -35.1785
   -35.1785 -35.1784 -35.1658 -35.1649 -35.1645 -35.1644 -35.1642 -35.1641
   -35.1639 -35.1639 -35.1639 -35.1637 -35.1637 -35.1636 -35.1635 -35.1633
   -35.1633 -35.1632 -35.1630 -35.1630 -35.1627 -35.1621 -35.1621 -35.1619
   -35.1616 -35.1614 -35.1614 -35.1612 -35.1612 -35.1611 -35.1611 -35.1610
   -35.1608 -35.1608 -35.1607 -35.1606 -35.1604 -35.1604 -26.0307 -26.0303
   -26.0148 -26.0145 -26.0141 -26.0141 -26.0120 -26.0116 -26.0113 -26.0113
   -25.9773 -25.9771 -25.9767 -25.9767 -25.9557 -25.9555 -25.9552 -25.9552
   -25.9524 -25.9520 -25.9253 -25.9250 -25.9090 -25.9087 -25.9041 -25.9038
   -25.9036 -25.9036 -25.9030 -25.9030 -25.9027 -25.9027 -25.9006 -25.9002
   -25.8949 -25.8948 -25.8946 -25.8945 -25.8932 -25.8928 -25.8926 -25.8926
   -25.8925 -25.8923 -25.8866 -25.8865 -25.8864 -25.8864 -25.8821 -25.8817
   -25.8730 -25.8726 -25.8635 -25.8631  -2.2384  -2.0708  -1.5518  -1.3985
    -1.2629  -1.2618  -1.1211  -1.1197  -1.0607  -0.8126  -0.8114  -0.7826
    -0.7042  -0.7001  -0.6988  -0.6689  -0.5719  -0.5558  -0.5553  -0.4862
    -0.3675  -0.3667  -0.3302  -0.3296  -0.3004  -0.2992  -0.2630  -0.2551
    -0.2538  -0.1978  -0.1971  -0.1553  -0.0634  -0.0628  -0.0165  -0.0158
     6.0655   6.3235   6.5273   6.6491   6.6494   6.8188   6.8490   6.8494
     6.8604   6.8877   6.8887   6.9846   6.9854   7.0594   7.0601   7.2098
     7.2104   7.3296   7.3305   7.4586   7.4589   7.4740   7.5072   7.5855
     7.6773   7.6777   7.6906   7.6921   7.7152   7.7153   7.9675   7.9680
     8.0380   8.0556   8.0816   8.0822   8.1596   8.2497   8.2500   8.4260
     8.4266   8.4867   8.4878   8.5282   8.5288   8.5342   8.6406   8.6410
     8.6670   8.6680   8.7213   8.8433   8.8442   9.0607   9.1734   9.1738
     9.3045   9.3050   9.3247   9.3259   9.4040   9.4415   9.4422   9.4618
     9.4623   9.4777   9.5246   9.6210   9.6408   9.6555   9.6561  10.0072
    10.0123  10.0318  10.0718  10.2199  10.2204  10.2690  10.4299  10.4309
    10.4402  10.4413  10.4523  10.4530  10.5106  10.5116  10.5348  10.5353
    10.5547  10.5555  10.5953  10.6007  10.6211  10.6216  10.6639  10.7470
    10.7477  10.7609  10.7627  10.8351  10.8827  11.0397  11.0430  11.0434
    11.1281  11.1321  11.2380  11.2853  11.4078  11.4243  11.4744  11.4749
    11.5309  11.5319  11.5324  11.5330  11.5338  11.6002  11.6090  11.6099
    12.0675  12.0678  12.2153  12.2156  12.3038  12.6042

          k = 0.2500 0.1443-0.1957 ( 92754 PWs)   bands (ev):

   -61.7367 -61.7365 -61.7337 -61.7334 -61.7325 -61.7324 -61.7322 -61.7322
   -61.7311 -61.7308 -61.7307 -61.7307 -61.7303 -61.7303 -61.7291 -61.7291
   -61.7291 -61.7285 -35.2224 -35.2224 -35.2199 -35.2198 -35.2196 -35.2196
   -35.2195 -35.2195 -35.2194 -35.2193 -35.2192 -35.2192 -35.2192 -35.2191
   -35.2191 -35.2190 -35.2190 -35.2190 -35.2189 -35.2189 -35.2189 -35.2189
   -35.2189 -35.2188 -35.2187 -35.2187 -35.2186 -35.2185 -35.2185 -35.2185
   -35.2184 -35.2184 -35.2183 -35.2183 -35.2182 -35.2181 -35.2181 -35.2181
   -35.2179 -35.2177 -35.2176 -35.2174 -35.2174 -35.2174 -35.2173 -35.2173
   -35.2172 -35.2170 -35.2169 -35.2169 -35.2169 -35.2169 -35.2168 -35.2167
   -35.2167 -35.2166 -35.2166 -35.2166 -35.2165 -35.2164 -35.2164 -35.2164
   -35.2163 -35.2163 -35.2163 -35.2162 -35.2162 -35.2160 -35.2159 -35.2159
   -35.2159 -35.2156 -35.1834 -35.1830 -35.1816 -35.1816 -35.1811 -35.1811
   -35.1810 -35.1810 -35.1810 -35.1810 -35.1809 -35.1808 -35.1808 -35.1807
   -35.1807 -35.1806 -35.1806 -35.1805 -35.1804 -35.1804 -35.1804 -35.1804
   -35.1804 -35.1803 -35.1803 -35.1803 -35.1802 -35.1802 -35.1802 -35.1802
   -35.1802 -35.1802 -35.1801 -35.1801 -35.1801 -35.1800 -35.1800 -35.1800
   -35.1799 -35.1798 -35.1798 -35.1798 -35.1798 -35.1798 -35.1798 -35.1797
   -35.1797 -35.1797 -35.1796 -35.1796 -35.1796 -35.1795 -35.1794 -35.1794
   -35.1793 -35.1793 -35.1793 -35.1792 -35.1792 -35.1791 -35.1791 -35.1790
   -35.1789 -35.1788 -35.1788 -35.1787 -35.1787 -35.1786 -35.1786 -35.1785
   -35.1785 -35.1784 -35.1658 -35.1649 -35.1645 -35.1644 -35.1642 -35.1641
   -35.1639 -35.1639 -35.1639 -35.1637 -35.1637 -35.1636 -35.1635 -35.1633
   -35.1633 -35.1632 -35.1630 -35.1630 -35.1627 -35.1621 -35.1621 -35.1619
   -35.1616 -35.1614 -35.1614 -35.1612 -35.1612 -35.1611 -35.1611 -35.1610
   -35.1608 -35.1608 -35.1607 -35.1606 -35.1604 -35.1604 -26.0307 -26.0303
   -26.0148 -26.0145 -26.0141 -26.0141 -26.0120 -26.0116 -26.0113 -26.0113
   -25.9773 -25.9771 -25.9767 -25.9767 -25.9557 -25.9555 -25.9552 -25.9552
   -25.9524 -25.9520 -25.9253 -25.9250 -25.9090 -25.9087 -25.9041 -25.9038
   -25.9036 -25.9036 -25.9030 -25.9030 -25.9027 -25.9027 -25.9006 -25.9002
   -25.8949 -25.8948 -25.8946 -25.8945 -25.8932 -25.8928 -25.8926 -25.8926
   -25.8925 -25.8923 -25.8866 -25.8865 -25.8864 -25.8864 -25.8821 -25.8817
   -25.8730 -25.8726 -25.8635 -25.8631  -2.2384  -2.0708  -1.5518  -1.3985
    -1.2630  -1.2618  -1.1211  -1.1197  -1.0607  -0.8126  -0.8114  -0.7826
    -0.7043  -0.7000  -0.6988  -0.6689  -0.5719  -0.5558  -0.5553  -0.4862
    -0.3675  -0.3667  -0.3302  -0.3296  -0.3005  -0.2992  -0.2630  -0.2550
    -0.2538  -0.1978  -0.1971  -0.1554  -0.0635  -0.0628  -0.0164  -0.0158
     6.0655   6.3234   6.5274   6.6492   6.6495   6.8187   6.8490   6.8492
     6.8604   6.8878   6.8886   6.9845   6.9856   7.0591   7.0600   7.2097
     7.2107   7.3297   7.3302   7.4591   7.4593   7.4739   7.5073   7.5854
     7.6769   7.6771   7.6909   7.6922   7.7154   7.7163   7.9666   7.9675
     8.0379   8.0556   8.0815   8.0822   8.1599   8.2495   8.2501   8.4261
     8.4266   8.4871   8.4874   8.5283   8.5290   8.5342   8.6405   8.6412
     8.6670   8.6678   8.7210   8.8437   8.8445   9.0609   9.1724   9.1734
     9.3044   9.3050   9.3252   9.3262   9.4040   9.4417   9.4421   9.4620
     9.4625   9.4777   9.5245   9.6212   9.6408   9.6554   9.6560  10.0071
    10.0123  10.0318  10.0719  10.2199  10.2209  10.2696  10.4303  10.4307
    10.4402  10.4409  10.4522  10.4529  10.5106  10.5116  10.5342  10.5351
    10.5548  10.5553  10.5949  10.6006  10.6210  10.6220  10.6639  10.7471
    10.7474  10.7614  10.7621  10.8351  10.8827  11.0396  11.0427  11.0437
    11.1287  11.1321  11.2382  11.2853  11.4082  11.4242  11.4746  11.4749
    11.5304  11.5317  11.5324  11.5329  11.5335  11.6006  11.6093  11.6101
    12.0676  12.0678  12.2152  12.2156  12.3035  12.6044

          k = 0.0000-0.2887 0.1957 ( 92754 PWs)   bands (ev):

   -61.7367 -61.7365 -61.7337 -61.7334 -61.7326 -61.7323 -61.7322 -61.7322
   -61.7311 -61.7309 -61.7307 -61.7307 -61.7303 -61.7303 -61.7291 -61.7291
   -61.7291 -61.7285 -35.2224 -35.2224 -35.2198 -35.2198 -35.2197 -35.2195
   -35.2195 -35.2195 -35.2194 -35.2193 -35.2192 -35.2192 -35.2192 -35.2191
   -35.2191 -35.2190 -35.2190 -35.2190 -35.2189 -35.2189 -35.2189 -35.2189
   -35.2189 -35.2188 -35.2187 -35.2187 -35.2186 -35.2185 -35.2185 -35.2185
   -35.2184 -35.2184 -35.2183 -35.2183 -35.2182 -35.2181 -35.2181 -35.2180
   -35.2179 -35.2178 -35.2175 -35.2174 -35.2174 -35.2173 -35.2173 -35.2173
   -35.2171 -35.2170 -35.2170 -35.2170 -35.2169 -35.2169 -35.2169 -35.2168
   -35.2167 -35.2166 -35.2166 -35.2166 -35.2166 -35.2164 -35.2164 -35.2163
   -35.2163 -35.2163 -35.2163 -35.2162 -35.2162 -35.2160 -35.2159 -35.2159
   -35.2159 -35.2156 -35.1834 -35.1830 -35.1816 -35.1816 -35.1812 -35.1811
   -35.1810 -35.1810 -35.1810 -35.1809 -35.1809 -35.1808 -35.1808 -35.1807
   -35.1807 -35.1806 -35.1805 -35.1805 -35.1805 -35.1804 -35.1804 -35.1804
   -35.1804 -35.1803 -35.1803 -35.1803 -35.1803 -35.1802 -35.1802 -35.1802
   -35.1802 -35.1802 -35.1801 -35.1801 -35.1801 -35.1800 -35.1800 -35.1800
   -35.1799 -35.1799 -35.1798 -35.1798 -35.1798 -35.1798 -35.1798 -35.1797
   -35.1797 -35.1797 -35.1796 -35.1796 -35.1796 -35.1795 -35.1794 -35.1794
   -35.1794 -35.1793 -35.1793 -35.1792 -35.1792 -35.1791 -35.1791 -35.1790
   -35.1789 -35.1788 -35.1788 -35.1787 -35.1787 -35.1787 -35.1786 -35.1785
   -35.1785 -35.1784 -35.1658 -35.1649 -35.1645 -35.1645 -35.1642 -35.1641
   -35.1640 -35.1639 -35.1638 -35.1637 -35.1637 -35.1636 -35.1635 -35.1634
   -35.1633 -35.1632 -35.1630 -35.1630 -35.1627 -35.1621 -35.1621 -35.1619
   -35.1616 -35.1614 -35.1614 -35.1613 -35.1612 -35.1611 -35.1611 -35.1610
   -35.1608 -35.1608 -35.1607 -35.1606 -35.1604 -35.1604 -26.0307 -26.0303
   -26.0148 -26.0144 -26.0141 -26.0141 -26.0120 -26.0116 -26.0113 -26.0113
   -25.9773 -25.9770 -25.9767 -25.9767 -25.9557 -25.9555 -25.9552 -25.9552
   -25.9525 -25.9520 -25.9253 -25.9250 -25.9090 -25.9087 -25.9041 -25.9039
   -25.9036 -25.9036 -25.9030 -25.9030 -25.9027 -25.9027 -25.9006 -25.9002
   -25.8948 -25.8948 -25.8946 -25.8945 -25.8932 -25.8929 -25.8926 -25.8926
   -25.8925 -25.8923 -25.8866 -25.8865 -25.8864 -25.8864 -25.8821 -25.8817
   -25.8730 -25.8726 -25.8635 -25.8631  -2.2384  -2.0708  -1.5517  -1.3985
    -1.2632  -1.2616  -1.1213  -1.1196  -1.0607  -0.8127  -0.8113  -0.7826
    -0.7043  -0.7002  -0.6987  -0.6688  -0.5718  -0.5559  -0.5551  -0.4863
    -0.3675  -0.3666  -0.3302  -0.3295  -0.3005  -0.2992  -0.2631  -0.2551
    -0.2538  -0.1978  -0.1970  -0.1555  -0.0634  -0.0628  -0.0165  -0.0157
     6.0655   6.3234   6.5272   6.6491   6.6495   6.8187   6.8489   6.8496
     6.8604   6.8876   6.8890   6.9843   6.9857   7.0592   7.0601   7.2097
     7.2106   7.3296   7.3304   7.4587   7.4589   7.4741   7.5073   7.5856
     7.6771   7.6778   7.6906   7.6920   7.7152   7.7155   7.9673   7.9681
     8.0380   8.0558   8.0815   8.0822   8.1595   8.2494   8.2499   8.4260
     8.4268   8.4865   8.4879   8.5282   8.5287   8.5343   8.6404   8.6410
     8.6666   8.6685   8.7211   8.8428   8.8446   9.0606   9.1733   9.1736
     9.3042   9.3049   9.3244   9.3264   9.4042   9.4409   9.4423   9.4617
     9.4624   9.4779   9.5245   9.6212   9.6409   9.6553   9.6563  10.0075
    10.0122  10.0317  10.0722  10.2199  10.2207  10.2689  10.4301  10.4311
    10.4404  10.4410  10.4522  10.4535  10.5103  10.5118  10.5343  10.5348
    10.5548  10.5555  10.5952  10.6006  10.6210  10.6220  10.6638  10.7470
    10.7478  10.7610  10.7620  10.8357  10.8832  11.0393  11.0429  11.0436
    11.1281  11.1321  11.2378  11.2854  11.4079  11.4240  11.4743  11.4754
    11.5307  11.5316  11.5324  11.5335  11.5338  11.6001  11.6091  11.6098
    12.0675  12.0677  12.2153  12.2156  12.3036  12.6042

          k = 0.0000 0.2887 0.1957 ( 92754 PWs)   bands (ev):

   -61.7367 -61.7365 -61.7337 -61.7334 -61.7326 -61.7323 -61.7322 -61.7322
   -61.7311 -61.7309 -61.7307 -61.7307 -61.7303 -61.7303 -61.7291 -61.7291
   -61.7291 -61.7285 -35.2224 -35.2224 -35.2198 -35.2198 -35.2197 -35.2195
   -35.2195 -35.2195 -35.2194 -35.2193 -35.2192 -35.2192 -35.2192 -35.2191
   -35.2191 -35.2190 -35.2190 -35.2190 -35.2189 -35.2189 -35.2189 -35.2189
   -35.2189 -35.2188 -35.2187 -35.2187 -35.2186 -35.2185 -35.2185 -35.2185
   -35.2184 -35.2184 -35.2183 -35.2183 -35.2182 -35.2181 -35.2181 -35.2180
   -35.2179 -35.2178 -35.2175 -35.2174 -35.2174 -35.2173 -35.2173 -35.2173
   -35.2171 -35.2170 -35.2170 -35.2170 -35.2169 -35.2169 -35.2169 -35.2168
   -35.2167 -35.2166 -35.2166 -35.2166 -35.2166 -35.2164 -35.2164 -35.2163
   -35.2163 -35.2163 -35.2162 -35.2162 -35.2162 -35.2160 -35.2159 -35.2159
   -35.2159 -35.2156 -35.1834 -35.1830 -35.1816 -35.1816 -35.1812 -35.1811
   -35.1811 -35.1810 -35.1810 -35.1809 -35.1809 -35.1808 -35.1808 -35.1807
   -35.1807 -35.1806 -35.1805 -35.1805 -35.1805 -35.1804 -35.1804 -35.1804
   -35.1804 -35.1803 -35.1803 -35.1803 -35.1802 -35.1802 -35.1802 -35.1802
   -35.1802 -35.1802 -35.1801 -35.1801 -35.1801 -35.1800 -35.1800 -35.1800
   -35.1799 -35.1799 -35.1798 -35.1798 -35.1798 -35.1798 -35.1798 -35.1797
   -35.1797 -35.1797 -35.1796 -35.1796 -35.1796 -35.1795 -35.1794 -35.1794
   -35.1794 -35.1793 -35.1793 -35.1792 -35.1792 -35.1791 -35.1791 -35.1790
   -35.1789 -35.1788 -35.1788 -35.1787 -35.1787 -35.1787 -35.1786 -35.1785
   -35.1785 -35.1784 -35.1658 -35.1649 -35.1645 -35.1645 -35.1642 -35.1640
   -35.1640 -35.1639 -35.1638 -35.1637 -35.1637 -35.1636 -35.1635 -35.1634
   -35.1633 -35.1632 -35.1630 -35.1630 -35.1627 -35.1621 -35.1621 -35.1619
   -35.1616 -35.1614 -35.1613 -35.1613 -35.1612 -35.1611 -35.1611 -35.1610
   -35.1608 -35.1608 -35.1607 -35.1606 -35.1604 -35.1604 -26.0307 -26.0303
   -26.0148 -26.0144 -26.0141 -26.0141 -26.0120 -26.0116 -26.0113 -26.0113
   -25.9773 -25.9770 -25.9767 -25.9767 -25.9557 -25.9555 -25.9552 -25.9552
   -25.9525 -25.9520 -25.9253 -25.9250 -25.9090 -25.9087 -25.9041 -25.9039
   -25.9036 -25.9036 -25.9030 -25.9030 -25.9027 -25.9027 -25.9006 -25.9002
   -25.8948 -25.8948 -25.8946 -25.8945 -25.8932 -25.8929 -25.8926 -25.8926
   -25.8925 -25.8923 -25.8866 -25.8865 -25.8864 -25.8864 -25.8821 -25.8817
   -25.8730 -25.8726 -25.8635 -25.8631  -2.2384  -2.0708  -1.5517  -1.3985
    -1.2632  -1.2616  -1.1213  -1.1196  -1.0607  -0.8127  -0.8113  -0.7826
    -0.7043  -0.7002  -0.6987  -0.6688  -0.5718  -0.5559  -0.5551  -0.4863
    -0.3675  -0.3666  -0.3302  -0.3295  -0.3005  -0.2992  -0.2631  -0.2551
    -0.2538  -0.1978  -0.1970  -0.1555  -0.0634  -0.0628  -0.0165  -0.0157
     6.0655   6.3233   6.5273   6.6491   6.6497   6.8187   6.8489   6.8494
     6.8605   6.8876   6.8889   6.9844   6.9858   7.0590   7.0600   7.2097
     7.2106   7.3296   7.3304   7.4589   7.4594   7.4739   7.5073   7.5855
     7.6769   7.6772   7.6909   7.6922   7.7155   7.7162   7.9668   7.9674
     8.0379   8.0559   8.0813   8.0822   8.1600   8.2494   8.2501   8.4255
     8.4267   8.4869   8.4876   8.5281   8.5291   8.5344   8.6403   8.6410
     8.6668   8.6681   8.7209   8.8434   8.8449   9.0607   9.1721   9.1740
     9.3037   9.3050   9.3252   9.3259   9.4042   9.4413   9.4422   9.4620
     9.4625   9.4779   9.5244   9.6213   9.6409   9.6551   9.6564  10.0075
    10.0122  10.0317  10.0722  10.2199  10.2207  10.2691  10.4303  10.4311
    10.4403  10.4412  10.4519  10.4532  10.5106  10.5117  10.5343  10.5346
    10.5543  10.5555  10.5950  10.6006  10.6210  10.6225  10.6639  10.7471
    10.7476  10.7614  10.7622  10.8357  10.8832  11.0391  11.0427  11.0433
    11.1285  11.1321  11.2378  11.2854  11.4079  11.4240  11.4748  11.4753
    11.5302  11.5316  11.5323  11.5332  11.5336  11.6004  11.6093  11.6100
    12.0676  12.0678  12.2153  12.2156  12.3036  12.6043

     highest occupied level (ev):    12.6044

!    total energy              =  -11463.77483833 Ry
     estimated scf accuracy    <          4.5E-11 Ry

     The total energy is the sum of the following terms:
     one-electron contribution =   -5695.55125714 Ry
     hartree contribution      =    3100.44269774 Ry
     xc contribution           =   -2340.31401459 Ry
     ewald contribution        =   -6526.40107684 Ry
     Dispersion Correction     =      -1.95118750 Ry

     convergence has been achieved in  25 iterations

     Forces acting on atoms (cartesian axes, Ry/au):

     atom    1 type  1   force =     0.00000637   -0.00000017   -0.00003225
     atom    2 type  1   force =     0.00000003   -0.00000552    0.00000401
     atom    3 type  1   force =     0.00000295   -0.00000361    0.00000426
     atom    4 type  1   force =     0.00000449    0.00000190    0.00000077
     atom    5 type  1   force =    -0.00000450   -0.00000011    0.00000757
     atom    6 type  1   force =    -0.00000077   -0.00000003   -0.00000202
     atom    7 type  1   force =     0.00000558    0.00000199    0.00000067
     atom    8 type  1   force =    -0.00000266   -0.00000005   -0.00000605
     atom    9 type  1   force =    -0.00000072    0.00000467    0.00000768
     atom   10 type  1   force =     0.00197796   -0.00097821    0.00209233
     atom   11 type  1   force =     0.00001111    0.00001917    0.00005198
     atom   12 type  1   force =    -0.00000345   -0.00016576    0.00062261
     atom   13 type  1   force =     0.00028370    0.00113467    0.00134859
     atom   14 type  1   force =     0.00003708    0.00007222    0.00009584
     atom   15 type  1   force =    -0.00001489   -0.00004179    0.00003456
     atom   16 type  1   force =    -0.00000802   -0.00001072    0.00005218
     atom   17 type  1   force =     0.00002567   -0.00000798    0.00005203
     atom   18 type  1   force =    -0.00008753   -0.00002970    0.00006499
     atom   19 type  2   force =    -0.00265640    0.00001061   -0.00496434
     atom   20 type  2   force =     0.00015694   -0.00000142   -0.00050181
     atom   21 type  2   force =     0.00022248    0.00001150   -0.00055302
     atom   22 type  2   force =     0.00004051   -0.00013119   -0.00054402
     atom   23 type  2   force =     0.00001564    0.00006807   -0.00051124
     atom   24 type  2   force =    -0.00000579    0.00000007   -0.00042505
     atom   25 type  2   force =     0.00000673   -0.00006065   -0.00051834
     atom   26 type  2   force =    -0.00000576   -0.00000015   -0.00042485
     atom   27 type  2   force =     0.00004957    0.00011321   -0.00053676
     atom   28 type  2   force =    -0.00003728    0.00001807    0.00046067
     atom   29 type  2   force =     0.00000139   -0.00000239    0.00042324
     atom   30 type  2   force =     0.00007238    0.00004491    0.00054591
     atom   31 type  2   force =    -0.00000567   -0.00006323    0.00050349
     atom   32 type  2   force =    -0.00000311    0.00000026    0.00041679
     atom   33 type  2   force =     0.00000253   -0.00000322    0.00042174
     atom   34 type  2   force =     0.00000279    0.00000089    0.00042473
     atom   35 type  2   force =    -0.00000121    0.00000155    0.00042177
     atom   36 type  2   force =    -0.00000330    0.00000334    0.00041932
     atom   37 type  2   force =     0.00000017   -0.00000002   -0.00042291
     atom   38 type  2   force =    -0.00000169    0.00000006   -0.00042236
     atom   39 type  2   force =    -0.00000026   -0.00000035   -0.00042307
     atom   40 type  2   force =     0.00000025    0.00000037   -0.00042303
     atom   41 type  2   force =     0.00000127    0.00000133   -0.00042514
     atom   42 type  2   force =    -0.00000207    0.00000083   -0.00042302
     atom   43 type  2   force =    -0.00000060    0.00000069   -0.00042229
     atom   44 type  2   force =    -0.00000033   -0.00000077   -0.00042244
     atom   45 type  2   force =    -0.00000082   -0.00000186   -0.00042409
     atom   46 type  2   force =    -0.00005546   -0.00000014    0.00096878
     atom   47 type  2   force =     0.00007087    0.00006256    0.00046282
     atom   48 type  2   force =    -0.00000981    0.00000973    0.00039909
     atom   49 type  2   force =    -0.00007648    0.00001181    0.00043982
     atom   50 type  2   force =     0.00002693    0.00002195    0.00042188
     atom   51 type  2   force =     0.00000607    0.00000011    0.00039814
     atom   52 type  2   force =    -0.00003591   -0.00011227    0.00047191
     atom   53 type  2   force =     0.00000599   -0.00000014    0.00039771
     atom   54 type  2   force =    -0.00001296    0.00000490    0.00039023

     Total force =     0.007253     Total SCF correction =     0.000041


     Computing stress (Cartesian axis) and pressure

          total   stress  (Ry/bohr**3)                   (kbar)     P=      -17.12
  -0.00014164  -0.00000024   0.00000080          -20.84       -0.04        0.12
  -0.00000024  -0.00014164  -0.00000000           -0.04      -20.84       -0.00
   0.00000080  -0.00000000  -0.00006593            0.12       -0.00       -9.70


     Writing all to output data dir ./WSe.save/ :
     XML data file, charge density, pseudopotentials, collected wavefunctions
 
     init_run     :     10.78s CPU     12.38s WALL (       1 calls)
     electrons    :    802.06s CPU    956.70s WALL (       1 calls)
     forces       :      7.58s CPU      8.16s WALL (       1 calls)
     force_london :      0.04s CPU      0.04s WALL (       1 calls)
     stress       :    117.49s CPU    123.63s WALL (       1 calls)
     stres_london :      0.04s CPU      0.04s WALL (       1 calls)

     Called by init_run:
     wfcinit      :      9.82s CPU     11.31s WALL (       1 calls)
     potinit      :      0.07s CPU      0.10s WALL (       1 calls)
     hinit0       :      0.45s CPU      0.49s WALL (       1 calls)

     Called by electrons:
     c_bands      :    752.64s CPU    899.64s WALL (      26 calls)
     sum_band     :     46.79s CPU     53.67s WALL (      26 calls)
     v_of_rho     :      1.76s CPU      1.96s WALL (      26 calls)
     mix_rho      :      0.64s CPU      0.69s WALL (      26 calls)
     energy_londo :      0.04s CPU      0.04s WALL (       1 calls)

     Called by c_bands:
     init_us_2    :     10.01s CPU     10.12s WALL (     165 calls)
     init_us_2:cp :     10.00s CPU     10.12s WALL (     165 calls)
     cegterg      :    717.41s CPU    851.62s WALL (      78 calls)

     Called by *egterg:
     cdiaghg      :     44.45s CPU    110.89s WALL (     443 calls)
     h_psi        :    416.50s CPU    455.03s WALL (     449 calls)
     g_psi        :      1.72s CPU      1.76s WALL (     368 calls)

     Called by h_psi:
     h_psi:calbec :    106.44s CPU    113.02s WALL (     449 calls)
     vloc_psi     :    211.89s CPU    242.67s WALL (     449 calls)
     add_vuspsi   :     93.85s CPU     94.39s WALL (     449 calls)

     General routines
     calbec       :    113.90s CPU    124.13s WALL (     464 calls)
     fft          :      1.34s CPU      1.51s WALL (     285 calls)
     ffts         :      0.08s CPU      0.10s WALL (      26 calls)
     fftw         :    220.46s CPU    252.82s WALL (  201866 calls)
 
     Parallel routines
     fft_scatt_xy :     29.32s CPU     32.98s WALL (  202177 calls)
     fft_scatt_yz :    122.17s CPU    142.62s WALL (  202177 calls)
 
     PWSCF        :  15m40.06s CPU  18m29.64s WALL

 
   This run was terminated on:  17:45:17   5Nov2024            

=------------------------------------------------------------------------------=
   JOB DONE.
=------------------------------------------------------------------------------=
