54   
3    

1    
  0.0123263299851592   0.0000000000000000   0.0157499710824168
  -0.0050463300    0.0000163602   -0.0081966002
   0.0000299400   -0.0002413698   -0.0001759902
   0.0000246200    0.0002403002   -0.0001782302
   0.0000536100   -0.0002241098   -0.0001796502
   0.0000557000    0.0002255602   -0.0001745602
   0.0000630900   -0.0000002998    0.0000117298
   0.0000559500    0.0002545302   -0.0001785302
   0.0000629500    0.0000001002    0.0000117598
   0.0000536600   -0.0002588498   -0.0001757402
   0.0000013700    0.0000024202    0.0000011798
  -0.0000022400    0.0000000502    0.0000116698
   0.0000016000   -0.0000021098    0.0000006298
   0.0000056100    0.0000000502    0.0000009098
   0.0000028000    0.0000046802    0.0000125198
   0.0000029100   -0.0000045198    0.0000125298
   0.0000044600    0.0000039402    0.0000116398
   0.0000044500   -0.0000037898    0.0000117098
  -0.0000051200    0.0000001502    0.0000125298
   0.0000099100    0.0000002102    0.0006053798
   0.0000046700    0.0000094202    0.0006559098
   0.0000013200    0.0000046202    0.0006525598
  -0.0000033000   -0.0000039898    0.0006565998
   0.0000101900   -0.0000006498    0.0006512098
  -0.0000037500    0.0000000802    0.0006390398
  -0.0000056600   -0.0000051398    0.0006583398
  -0.0000000400    0.0000000402    0.0006438198
   0.0000052500   -0.0000051898    0.0006495198
   0.0020529000   -0.0010296598    0.0016428598
   0.0000171700    0.0000032102   -0.0006001502
   0.0000311600   -0.0001373898   -0.0000621502
   0.0002694500    0.0011612202    0.0007818398
   0.0000555100    0.0000854202   -0.0005478202
  -0.0000166200   -0.0000429098   -0.0006105202
   0.0000104400   -0.0000045998   -0.0006091902
   0.0000145300    0.0000005802   -0.0005910602
  -0.0000914100   -0.0000421898   -0.0005783002
   0.0000275400    0.0001411502    0.0012320298
   0.0000158200   -0.0000017598    0.0006939098
   0.0019689600    0.0009800702    0.0028502798
   0.0002719200   -0.0011264798    0.0020492498
  -0.0000193800    0.0000426602    0.0006840898
   0.0000545100   -0.0000845098    0.0007466098
   0.0000139000   -0.0000017598    0.0007041598
   0.0000095200    0.0000027902    0.0006835898
  -0.0000922300    0.0000422002    0.0007144398
   0.0000097000    0.0000002202   -0.0006894202
   0.0000009600   -0.0000049098   -0.0006421302
   0.0000052200   -0.0000096598   -0.0006384802
   0.0000110900   -0.0000001898   -0.0006426802
  -0.0000040400    0.0000031702   -0.0006374102
  -0.0000037500    0.0000001402   -0.0006549202
   0.0000047800    0.0000053402   -0.0006444602
  -0.0000001500    0.0000000702   -0.0006506702
  -0.0000051200    0.0000052802   -0.0006355802

19   
  0.0123263299851592   0.0000000000000000   0.0157499710824168
   0.0000105196   -0.0000001006   -0.0000418498
  -0.0000002504   -0.0000073806    0.0000053402
   0.0000052896   -0.0000035306    0.0000083302
   0.0000060196    0.0000012994    0.0000028202
  -0.0000060904   -0.0000008606    0.0000109002
  -0.0000007404   -0.0000000906   -0.0000035098
   0.0000071296    0.0000032294    0.0000013102
  -0.0000043404   -0.0000001106   -0.0000079998
   0.0000003796    0.0000067294    0.0000122802
   0.0021279496   -0.0010717406    0.0022375402
   0.0000155996    0.0000139294    0.0000468902
  -0.0000385104   -0.0001794506    0.0006365202
   0.0002719396    0.0012412394    0.0014274102
   0.0000573396    0.0000868094    0.0000972102
  -0.0000218904   -0.0000406906    0.0000386702
  -0.0000002204   -0.0000088106    0.0000453002
   0.0000241696   -0.0000047306    0.0000483702
  -0.0000926204   -0.0000452706    0.0000677002
  -0.0028501104    0.0000109594   -0.0041516498
   0.0001804196   -0.0000001906    0.0005726602
   0.0002474096    0.0000132894    0.0005193302
   0.0000467196   -0.0001435606    0.0005275902
   0.0000228696    0.0000762994    0.0005639002
  -0.0000054904   -0.0000001706    0.0006495102
   0.0000117096   -0.0000700106    0.0005542502
  -0.0000056804    0.0000001694    0.0006503202
   0.0000581896    0.0001234994    0.0005374002
  -0.0000540004    0.0000244194   -0.0006109698
   0.0000012496   -0.0000027506   -0.0006478598
   0.0000985396    0.0000637794   -0.0004931198
  -0.0000119604   -0.0000880706   -0.0005520398
  -0.0000050504   -0.0000003806   -0.0006582398
   0.0000050896   -0.0000054706   -0.0006512898
   0.0000035296    0.0000011594   -0.0006459098
  -0.0000015104    0.0000016494   -0.0006498598
  -0.0000044904    0.0000058494   -0.0006546298
  -0.0000008304    0.0000005594    0.0006505102
  -0.0000028504    0.0000003994    0.0006486002
   0.0000003596    0.0000004394    0.0006501402
  -0.0000002904   -0.0000007006    0.0006504802
   0.0000006296    0.0000009894    0.0006456202
  -0.0000016304    0.0000003194    0.0006483202
  -0.0000011604    0.0000008394    0.0006488102
  -0.0000006704   -0.0000011706    0.0006484602
  -0.0000011804   -0.0000013206    0.0006468602
  -0.0000600804   -0.0000000206   -0.0001561398
   0.0000706696    0.0000641394   -0.0006029598
  -0.0000155304    0.0000133994   -0.0006703498
  -0.0000811104    0.0000127694   -0.0006266398
   0.0000292596    0.0000226194   -0.0006469098
   0.0000082496   -0.0000000606   -0.0006767598
  -0.0000377504   -0.0001137006   -0.0005926098
   0.0000078896    0.0000001994   -0.0006777398
  -0.0000130804   -0.0000006406   -0.0006803198

19   
 -0.0123263299851592   0.0000000000000000  -0.0157499710824168
  -0.0000107600   -0.0000000993    0.0000422600
  -0.0000003800    0.0000071107   -0.0000053900
  -0.0000052500    0.0000034907   -0.0000084300
  -0.0000060700   -0.0000017293   -0.0000027400
   0.0000057300    0.0000002707   -0.0000110200
   0.0000006100    0.0000000007    0.0000035100
  -0.0000073600   -0.0000029893   -0.0000012900
   0.0000042400   -0.0000000093    0.0000080100
  -0.0000004800   -0.0000068193   -0.0000125800
  -0.0020363200    0.0010191407   -0.0021442900
  -0.0000154300   -0.0000139793   -0.0000462800
   0.0000432900    0.0001815407   -0.0006433100
  -0.0002712200   -0.0012099193   -0.0014029900
  -0.0000579400   -0.0000859893   -0.0000955100
   0.0000213300    0.0000404307   -0.0000396000
  -0.0000002400    0.0000090107   -0.0000443900
  -0.0000241600    0.0000053007   -0.0000481200
   0.0000913200    0.0000462107   -0.0000678000
   0.0027612400    0.0000102907    0.0053303900
  -0.0001783900   -0.0000011393    0.0007208800
  -0.0002500000   -0.0000135493    0.0007762800
  -0.0000460300    0.0001429107    0.0007669700
  -0.0000245800   -0.0000764593    0.0007295300
   0.0000056900   -0.0000001293    0.0006451300
  -0.0000118500    0.0000707507    0.0007392700
   0.0000054300    0.0000002507    0.0006452200
  -0.0000584700   -0.0001231993    0.0007572600
   0.0000537900   -0.0000237893   -0.0006825600
  -0.0000016300    0.0000029207   -0.0006460200
  -0.0000985100   -0.0000644893   -0.0008025000
   0.0000126600    0.0000882207   -0.0007426700
   0.0000044800    0.0000000807   -0.0006361400
  -0.0000045300    0.0000056507   -0.0006428900
  -0.0000035600   -0.0000012693   -0.0006483900
   0.0000016500   -0.0000018493   -0.0006444400
   0.0000046100   -0.0000052793   -0.0006396500
   0.0000007100   -0.0000001593    0.0006443800
   0.0000025500   -0.0000002293    0.0006452900
   0.0000002700   -0.0000002693    0.0006445400
   0.0000003600    0.0000005307    0.0006447200
  -0.0000011000   -0.0000011993    0.0006486800
   0.0000022000   -0.0000001193    0.0006458600
   0.0000011200   -0.0000010093    0.0006454900
   0.0000008700    0.0000010207    0.0006458700
   0.0000012700    0.0000018307    0.0006474600
   0.0000591400   -0.0000000393   -0.0011328900
  -0.0000698700   -0.0000653393   -0.0006916800
   0.0000154400   -0.0000142793   -0.0006250000
   0.0000804900   -0.0000122993   -0.0006681500
  -0.0000309900   -0.0000226093   -0.0006485300
  -0.0000077500   -0.0000000693   -0.0006176500
   0.0000380200    0.0001117107   -0.0007012100
  -0.0000082600    0.0000003007   -0.0006180000
   0.0000126200    0.0000013307   -0.0006148900
