phonopy:
  version: "2.24.2"
  calculator: qe
  frequency_unit_conversion_factor: 108.970772
  symmetry_tolerance: 1.00000e-05
  configuration:
    dim: "3 3 1"
    primitive_axis: "AUTO"
    mp: "80 80 80"
    cell_filename: "scf.in"
    calculator: "qe"
    tprop: ".true."

physical_unit:
  atomic_mass: "AMU"
  length: "au"
  force: "Ry/au"
  force_constants: "Ry/au^2"

space_group:
  type: "P6_3/mmc"
  number: 194
  Hall_symbol: "-P 6c 2c"

primitive_matrix:
- [  1.000000000000000, -0.000000000000000,  0.000000000000000 ]
- [  0.000000000000000,  1.000000000000000,  0.000000000000000 ]
- [  0.000000000000000,  0.000000000000000,  1.000000000000000 ]

supercell_matrix:
- [   3,   0,   0 ]
- [   0,   3,   0 ]
- [   0,   0,   1 ]

primitive_cell:
  lattice:
  - [     6.231559951840749,     0.000000000000000,     0.000000000000000 ] # a
  - [    -3.115779973114132,     5.396689225188197,     0.000000000000000 ] # b
  - [     0.000000000000000,     0.000000000000000,    23.887131650216933 ] # c
  points:
  - symbol: W  # 1
    coordinates: [  0.333333343000000,  0.666666687000000,  0.750000000000000 ]
    mass: 183.840000
  - symbol: W  # 2
    coordinates: [  0.666666627000000,  0.333333313000000,  0.250000000000000 ]
    mass: 183.840000
  - symbol: Se # 3
    coordinates: [  0.333333343000000,  0.666666687000000,  0.117605748100000 ]
    mass: 78.960000
  - symbol: Se # 4
    coordinates: [  0.666666627000000,  0.333333313000000,  0.882394258900000 ]
    mass: 78.960000
  - symbol: Se # 5
    coordinates: [  0.666666627000000,  0.333333313000000,  0.617605741100000 ]
    mass: 78.960000
  - symbol: Se # 6
    coordinates: [  0.333333343000000,  0.666666687000000,  0.382394258900000 ]
    mass: 78.960000
  reciprocal_lattice: # without 2pi
  - [     0.160473462139221,     0.092649396451439,     0.000000000000000 ] # a*
  - [     0.000000000000000,     0.185298793069769,     0.000000000000000 ] # b*
  - [     0.000000000000000,     0.000000000000000,     0.041863544549557 ] # c*

unit_cell:
  lattice:
  - [     6.231559951840749,     0.000000000000000,     0.000000000000000 ] # a
  - [    -3.115779973114132,     5.396689225188197,     0.000000000000000 ] # b
  - [     0.000000000000000,     0.000000000000000,    23.887131650216933 ] # c
  points:
  - symbol: W  # 1
    coordinates: [  0.333333343000000,  0.666666687000000,  0.750000000000000 ]
    mass: 183.840000
    reduced_to: 1
  - symbol: W  # 2
    coordinates: [  0.666666627000000,  0.333333313000000,  0.250000000000000 ]
    mass: 183.840000
    reduced_to: 2
  - symbol: Se # 3
    coordinates: [  0.333333343000000,  0.666666687000000,  0.117605748100000 ]
    mass: 78.960000
    reduced_to: 3
  - symbol: Se # 4
    coordinates: [  0.666666627000000,  0.333333313000000,  0.882394258900000 ]
    mass: 78.960000
    reduced_to: 4
  - symbol: Se # 5
    coordinates: [  0.666666627000000,  0.333333313000000,  0.617605741100000 ]
    mass: 78.960000
    reduced_to: 5
  - symbol: Se # 6
    coordinates: [  0.333333343000000,  0.666666687000000,  0.382394258900000 ]
    mass: 78.960000
    reduced_to: 6

supercell:
  lattice:
  - [    18.694679855522246,     0.000000000000000,     0.000000000000000 ] # a
  - [    -9.347339919342396,    16.190067675564592,     0.000000000000000 ] # b
  - [     0.000000000000000,     0.000000000000000,    23.887131650216933 ] # c
  points:
  - symbol: W  # 1
    coordinates: [  0.111111114333333,  0.222222229000000,  0.750000000000000 ]
    mass: 183.840000
    reduced_to: 1
  - symbol: W  # 2
    coordinates: [  0.444444447666667,  0.222222229000000,  0.750000000000000 ]
    mass: 183.840000
    reduced_to: 1
  - symbol: W  # 3
    coordinates: [  0.777777781000000,  0.222222229000000,  0.750000000000000 ]
    mass: 183.840000
    reduced_to: 1
  - symbol: W  # 4
    coordinates: [  0.111111114333333,  0.555555562333333,  0.750000000000000 ]
    mass: 183.840000
    reduced_to: 1
  - symbol: W  # 5
    coordinates: [  0.444444447666667,  0.555555562333333,  0.750000000000000 ]
    mass: 183.840000
    reduced_to: 1
  - symbol: W  # 6
    coordinates: [  0.777777781000000,  0.555555562333333,  0.750000000000000 ]
    mass: 183.840000
    reduced_to: 1
  - symbol: W  # 7
    coordinates: [  0.111111114333333,  0.888888895666667,  0.750000000000000 ]
    mass: 183.840000
    reduced_to: 1
  - symbol: W  # 8
    coordinates: [  0.444444447666667,  0.888888895666667,  0.750000000000000 ]
    mass: 183.840000
    reduced_to: 1
  - symbol: W  # 9
    coordinates: [  0.777777781000000,  0.888888895666667,  0.750000000000000 ]
    mass: 183.840000
    reduced_to: 1
  - symbol: W  # 10
    coordinates: [  0.222222209000000,  0.111111104333333,  0.250000000000000 ]
    mass: 183.840000
    reduced_to: 10
  - symbol: W  # 11
    coordinates: [  0.555555542333333,  0.111111104333333,  0.250000000000000 ]
    mass: 183.840000
    reduced_to: 10
  - symbol: W  # 12
    coordinates: [  0.888888875666667,  0.111111104333333,  0.250000000000000 ]
    mass: 183.840000
    reduced_to: 10
  - symbol: W  # 13
    coordinates: [  0.222222209000000,  0.444444437666667,  0.250000000000000 ]
    mass: 183.840000
    reduced_to: 10
  - symbol: W  # 14
    coordinates: [  0.555555542333333,  0.444444437666667,  0.250000000000000 ]
    mass: 183.840000
    reduced_to: 10
  - symbol: W  # 15
    coordinates: [  0.888888875666667,  0.444444437666667,  0.250000000000000 ]
    mass: 183.840000
    reduced_to: 10
  - symbol: W  # 16
    coordinates: [  0.222222209000000,  0.777777771000000,  0.250000000000000 ]
    mass: 183.840000
    reduced_to: 10
  - symbol: W  # 17
    coordinates: [  0.555555542333333,  0.777777771000000,  0.250000000000000 ]
    mass: 183.840000
    reduced_to: 10
  - symbol: W  # 18
    coordinates: [  0.888888875666667,  0.777777771000000,  0.250000000000000 ]
    mass: 183.840000
    reduced_to: 10
  - symbol: Se # 19
    coordinates: [  0.111111114333333,  0.222222229000000,  0.117605748100000 ]
    mass: 78.960000
    reduced_to: 19
  - symbol: Se # 20
    coordinates: [  0.444444447666667,  0.222222229000000,  0.117605748100000 ]
    mass: 78.960000
    reduced_to: 19
  - symbol: Se # 21
    coordinates: [  0.777777781000000,  0.222222229000000,  0.117605748100000 ]
    mass: 78.960000
    reduced_to: 19
  - symbol: Se # 22
    coordinates: [  0.111111114333333,  0.555555562333333,  0.117605748100000 ]
    mass: 78.960000
    reduced_to: 19
  - symbol: Se # 23
    coordinates: [  0.444444447666667,  0.555555562333333,  0.117605748100000 ]
    mass: 78.960000
    reduced_to: 19
  - symbol: Se # 24
    coordinates: [  0.777777781000000,  0.555555562333333,  0.117605748100000 ]
    mass: 78.960000
    reduced_to: 19
  - symbol: Se # 25
    coordinates: [  0.111111114333333,  0.888888895666667,  0.117605748100000 ]
    mass: 78.960000
    reduced_to: 19
  - symbol: Se # 26
    coordinates: [  0.444444447666667,  0.888888895666667,  0.117605748100000 ]
    mass: 78.960000
    reduced_to: 19
  - symbol: Se # 27
    coordinates: [  0.777777781000000,  0.888888895666667,  0.117605748100000 ]
    mass: 78.960000
    reduced_to: 19
  - symbol: Se # 28
    coordinates: [  0.222222209000000,  0.111111104333333,  0.882394258900000 ]
    mass: 78.960000
    reduced_to: 28
  - symbol: Se # 29
    coordinates: [  0.555555542333333,  0.111111104333333,  0.882394258900000 ]
    mass: 78.960000
    reduced_to: 28
  - symbol: Se # 30
    coordinates: [  0.888888875666667,  0.111111104333333,  0.882394258900000 ]
    mass: 78.960000
    reduced_to: 28
  - symbol: Se # 31
    coordinates: [  0.222222209000000,  0.444444437666667,  0.882394258900000 ]
    mass: 78.960000
    reduced_to: 28
  - symbol: Se # 32
    coordinates: [  0.555555542333333,  0.444444437666667,  0.882394258900000 ]
    mass: 78.960000
    reduced_to: 28
  - symbol: Se # 33
    coordinates: [  0.888888875666667,  0.444444437666667,  0.882394258900000 ]
    mass: 78.960000
    reduced_to: 28
  - symbol: Se # 34
    coordinates: [  0.222222209000000,  0.777777771000000,  0.882394258900000 ]
    mass: 78.960000
    reduced_to: 28
  - symbol: Se # 35
    coordinates: [  0.555555542333333,  0.777777771000000,  0.882394258900000 ]
    mass: 78.960000
    reduced_to: 28
  - symbol: Se # 36
    coordinates: [  0.888888875666667,  0.777777771000000,  0.882394258900000 ]
    mass: 78.960000
    reduced_to: 28
  - symbol: Se # 37
    coordinates: [  0.222222209000000,  0.111111104333333,  0.617605741100000 ]
    mass: 78.960000
    reduced_to: 37
  - symbol: Se # 38
    coordinates: [  0.555555542333333,  0.111111104333333,  0.617605741100000 ]
    mass: 78.960000
    reduced_to: 37
  - symbol: Se # 39
    coordinates: [  0.888888875666667,  0.111111104333333,  0.617605741100000 ]
    mass: 78.960000
    reduced_to: 37
  - symbol: Se # 40
    coordinates: [  0.222222209000000,  0.444444437666667,  0.617605741100000 ]
    mass: 78.960000
    reduced_to: 37
  - symbol: Se # 41
    coordinates: [  0.555555542333333,  0.444444437666667,  0.617605741100000 ]
    mass: 78.960000
    reduced_to: 37
  - symbol: Se # 42
    coordinates: [  0.888888875666667,  0.444444437666667,  0.617605741100000 ]
    mass: 78.960000
    reduced_to: 37
  - symbol: Se # 43
    coordinates: [  0.222222209000000,  0.777777771000000,  0.617605741100000 ]
    mass: 78.960000
    reduced_to: 37
  - symbol: Se # 44
    coordinates: [  0.555555542333333,  0.777777771000000,  0.617605741100000 ]
    mass: 78.960000
    reduced_to: 37
  - symbol: Se # 45
    coordinates: [  0.888888875666667,  0.777777771000000,  0.617605741100000 ]
    mass: 78.960000
    reduced_to: 37
  - symbol: Se # 46
    coordinates: [  0.111111114333333,  0.222222229000000,  0.382394258900000 ]
    mass: 78.960000
    reduced_to: 46
  - symbol: Se # 47
    coordinates: [  0.444444447666667,  0.222222229000000,  0.382394258900000 ]
    mass: 78.960000
    reduced_to: 46
  - symbol: Se # 48
    coordinates: [  0.777777781000000,  0.222222229000000,  0.382394258900000 ]
    mass: 78.960000
    reduced_to: 46
  - symbol: Se # 49
    coordinates: [  0.111111114333333,  0.555555562333333,  0.382394258900000 ]
    mass: 78.960000
    reduced_to: 46
  - symbol: Se # 50
    coordinates: [  0.444444447666667,  0.555555562333333,  0.382394258900000 ]
    mass: 78.960000
    reduced_to: 46
  - symbol: Se # 51
    coordinates: [  0.777777781000000,  0.555555562333333,  0.382394258900000 ]
    mass: 78.960000
    reduced_to: 46
  - symbol: Se # 52
    coordinates: [  0.111111114333333,  0.888888895666667,  0.382394258900000 ]
    mass: 78.960000
    reduced_to: 46
  - symbol: Se # 53
    coordinates: [  0.444444447666667,  0.888888895666667,  0.382394258900000 ]
    mass: 78.960000
    reduced_to: 46
  - symbol: Se # 54
    coordinates: [  0.777777781000000,  0.888888895666667,  0.382394258900000 ]
    mass: 78.960000
    reduced_to: 46
