
     Program PWSCF v.7.3 starts on  5Nov2024 at 17: 6:21 

     This program is part of the open-source Quantum ESPRESSO suite
     for quantum simulation of materials; please cite
         "P. Giannozzi et al., J. Phys.:Condens. Matter 21 395502 (2009);
         "P. Giannozzi et al., J. Phys.:Condens. Matter 29 465901 (2017);
         "P. Giannozzi et al., J. Chem. Phys. 152 154105 (2020);
          URL http://www.quantum-espresso.org", 
     in publications or presentations arising from this work. More details at
     http://www.quantum-espresso.org/quote

     Parallel version (MPI & OpenMP), running on     256 processor cores
     Number of MPI processes:               256
     Threads/MPI process:                     1

     MPI processes distributed on     1 nodes
     493365 MiB available memory on the printing compute node when the environment starts
 
     Waiting for input...
     Reading input from standard input
Warning: card &CELL ignored
Warning: card PRESS_CONV_THR=0.01 ignored
Warning: card / ignored

     Current dimensions of program PWSCF are:
     Max number of different atomic species (ntypx) = 10
     Max number of k-points (npk) =  40000
     Max angular momentum in pseudopotentials (lmaxx) =  4
     Message from routine setup:
     using ibrav=0 with symmetry is DISCOURAGED, use correct ibrav instead
     Message from routine setup:
     Dynamics, you should have no symmetries
 
     K-points division:     npool     =       4
     R & G space division:  proc/nbgrp/npool/nimage =      64
     Subspace diagonalization in iterative solution of the eigenvalue problem:
     a serial algorithm will be used

 
     Parallelization info
     --------------------
     sticks:   dense  smooth     PW     G-vecs:    dense   smooth      PW
     Min          13      13      3                 1207     1207     177
     Max          14      14      4                 1228     1228     208
     Sum         847     847    253                77699    77699   12723
 
     Using Pencil Decomposition
 


     bravais-lattice index     =            0
     lattice parameter (alat)  =       6.2316  a.u.
     unit-cell volume          =     803.3193 (a.u.)^3
     number of atoms/cell      =            6
     number of atomic types    =            2
     number of electrons       =        92.00
     number of Kohn-Sham states=           46
     kinetic-energy cutoff     =      80.0000  Ry
     charge density cutoff     =     320.0000  Ry
     scf convergence threshold =      1.0E-10
     mixing beta               =       0.5000
     number of iterations used =            8  plain     mixing
     energy convergence thresh.=      1.0E-04
     force convergence thresh. =      1.0E-03
     Exchange-correlation= PBE
                           (   1   4   3   4   0   0   0)
     nstep                     =           50


     celldm(1)=   6.231560  celldm(2)=   0.000000  celldm(3)=   0.000000
     celldm(4)=   0.000000  celldm(5)=   0.000000  celldm(6)=   0.000000

     crystal axes: (cart. coord. in units of alat)
               a(1) = (   1.000000   0.000000   0.000000 )  
               a(2) = (  -0.500000   0.866025   0.000000 )  
               a(3) = (   0.000000   0.000000   3.833251 )  

     reciprocal axes: (cart. coord. in units 2 pi/alat)
               b(1) = (  1.000000  0.577350  0.000000 )  
               b(2) = (  0.000000  1.154701  0.000000 )  
               b(3) = (  0.000000  0.000000  0.260875 )  


     PseudoPot. # 1 for W  read from file:
     /users/rkarkee/pbe_pseudo/W.upf
     MD5 check sum: cb94e439a9e4ea809831d6e90c63864e
     Pseudo is Norm-conserving + core correction, Zval = 14.0
     Generated using ONCVPSP code by D. R. Hamann
     Using radial grid of 1396 points,  8 beta functions with: 
                l(1) =   0
                l(2) =   0
                l(3) =   1
                l(4) =   1
                l(5) =   2
                l(6) =   2
                l(7) =   3
                l(8) =   3

     PseudoPot. # 2 for Se read from file:
     /users/rkarkee/pbe_pseudo/Se.upf
     MD5 check sum: 3cc46b3642295b3f4fdae63b742ce36d
     Pseudo is Norm-conserving + core correction, Zval = 16.0
     Generated using ONCVPSP code by D. R. Hamann
     Using radial grid of 1214 points,  6 beta functions with: 
                l(1) =   0
                l(2) =   0
                l(3) =   1
                l(4) =   1
                l(5) =   2
                l(6) =   2

     atomic species   valence    mass     pseudopotential
     W                14.00   183.84000     W ( 1.00)
     Se               16.00    78.96000     Se( 1.00)

     24 Sym. Ops., with inversion, found (12 have fractional translation)



   Cartesian axes

     site n.     atom                  positions (alat units)
         1        W      tau(   1) = (  -0.0000000   0.5773503   2.8749380  )
         2        W      tau(   2) = (   0.5000000   0.2886751   0.9583127  )
         3        Se     tau(   3) = (  -0.0000000   0.5773503   0.4585723  )
         4        Se     tau(   4) = (   0.5000000   0.2886751   3.3746785  )
         5        Se     tau(   5) = (   0.5000000   0.2886751   2.3751976  )
         6        Se     tau(   6) = (  -0.0000000   0.5773503   1.4580531  )

     -------------------------------------------------
     Parameters for Dispersion (Grimme-D2) Correction:
     -------------------------------------------------
       atom      VdW radius       C_6     

        W          3.349       2818.308
        Se         3.347        438.498

     number of k points=    12
                       cart. coord. in units 2pi/alat
        k(    1) = (   0.0833333   0.1443376   0.0652188), wk =   0.1111111
        k(    2) = (   0.0833333   0.3367877   0.0652188), wk =   0.2222222
        k(    3) = (   0.0833333   0.5292377   0.0652188), wk =   0.2222222
        k(    4) = (   0.0833333  -0.4330127   0.0652188), wk =   0.2222222
        k(    5) = (   0.0833333  -0.2405626   0.0652188), wk =   0.2222222
        k(    6) = (   0.0833333  -0.0481125   0.0652188), wk =   0.1111111
        k(    7) = (   0.2500000   0.4330127   0.0652188), wk =   0.1111111
        k(    8) = (   0.2500000   0.6254628   0.0652188), wk =   0.2222222
        k(    9) = (   0.2500000  -0.3367877   0.0652188), wk =   0.2222222
        k(   10) = (   0.2500000  -0.1443376   0.0652188), wk =   0.1111111
        k(   11) = (   0.4166667   0.7216878   0.0652188), wk =   0.1111111
        k(   12) = (   0.4166667  -0.2405626   0.0652188), wk =   0.1111111

     Dense  grid:    77699 G-vectors     FFT dimensions: (  36,  36, 144)

     Estimated max dynamical RAM per process >       9.34 MB

     Estimated total dynamical RAM >       2.28 GB

     Initial potential from superposition of free atoms

     starting charge      91.9987, renormalised to      92.0000
     Starting wfcs are   56 randomized atomic wfcs

     total cpu time spent up to now is        1.9 secs

     Self-consistent Calculation

     iteration #  1     ecut=    80.00 Ry     beta= 0.50
     Davidson diagonalization with overlap
     ethr =  1.00E-02,  avg # of iterations =  2.0

     Threshold (ethr) on eigenvalues was too large:
     Diagonalizing with lowered threshold

     Davidson diagonalization with overlap
     ethr =  8.95E-05,  avg # of iterations =  4.5

     total cpu time spent up to now is        2.7 secs

     total energy              =   -1273.72577629 Ry
     estimated scf accuracy    <       0.13284449 Ry

     iteration #  2     ecut=    80.00 Ry     beta= 0.50
     Davidson diagonalization with overlap
     ethr =  1.44E-04,  avg # of iterations =  3.8

     total cpu time spent up to now is        3.0 secs

     total energy              =   -1273.73742823 Ry
     estimated scf accuracy    <       0.04985301 Ry

     iteration #  3     ecut=    80.00 Ry     beta= 0.50
     Davidson diagonalization with overlap
     ethr =  5.42E-05,  avg # of iterations =  5.1

     total cpu time spent up to now is        3.3 secs

     total energy              =   -1273.74665083 Ry
     estimated scf accuracy    <       0.02076022 Ry

     iteration #  4     ecut=    80.00 Ry     beta= 0.50
     Davidson diagonalization with overlap
     ethr =  2.26E-05,  avg # of iterations =  4.2

     total cpu time spent up to now is        3.6 secs

     total energy              =   -1273.74995390 Ry
     estimated scf accuracy    <       0.00062776 Ry

     iteration #  5     ecut=    80.00 Ry     beta= 0.50
     Davidson diagonalization with overlap
     ethr =  6.82E-07,  avg # of iterations =  6.3

     total cpu time spent up to now is        4.0 secs

     total energy              =   -1273.74971949 Ry
     estimated scf accuracy    <       0.00155015 Ry

     iteration #  6     ecut=    80.00 Ry     beta= 0.50
     Davidson diagonalization with overlap
     ethr =  6.82E-07,  avg # of iterations =  6.5

     total cpu time spent up to now is        4.4 secs

     total energy              =   -1273.75012189 Ry
     estimated scf accuracy    <       0.00124843 Ry

     iteration #  7     ecut=    80.00 Ry     beta= 0.50
     Davidson diagonalization with overlap
     ethr =  6.82E-07,  avg # of iterations =  4.6

     total cpu time spent up to now is        4.7 secs

     total energy              =   -1273.75022636 Ry
     estimated scf accuracy    <       0.00006209 Ry

     iteration #  8     ecut=    80.00 Ry     beta= 0.50
     Davidson diagonalization with overlap
     ethr =  6.75E-08,  avg # of iterations =  5.2

     total cpu time spent up to now is        5.0 secs

     total energy              =   -1273.75025342 Ry
     estimated scf accuracy    <       0.00002392 Ry

     iteration #  9     ecut=    80.00 Ry     beta= 0.50
     Davidson diagonalization with overlap
     ethr =  2.60E-08,  avg # of iterations =  2.3

     total cpu time spent up to now is        5.3 secs

     total energy              =   -1273.75025280 Ry
     estimated scf accuracy    <       0.00000510 Ry

     iteration # 10     ecut=    80.00 Ry     beta= 0.50
     Davidson diagonalization with overlap
     ethr =  5.55E-09,  avg # of iterations =  5.6

     total cpu time spent up to now is        5.6 secs

     total energy              =   -1273.75025431 Ry
     estimated scf accuracy    <       0.00000498 Ry

     iteration # 11     ecut=    80.00 Ry     beta= 0.50
     Davidson diagonalization with overlap
     ethr =  5.42E-09,  avg # of iterations =  3.4

     total cpu time spent up to now is        5.9 secs

     total energy              =   -1273.75025492 Ry
     estimated scf accuracy    <       0.00000014 Ry

     iteration # 12     ecut=    80.00 Ry     beta= 0.50
     Davidson diagonalization with overlap
     ethr =  1.48E-10,  avg # of iterations =  5.7

     total cpu time spent up to now is        6.3 secs

     total energy              =   -1273.75025505 Ry
     estimated scf accuracy    <       0.00000014 Ry

     iteration # 13     ecut=    80.00 Ry     beta= 0.50
     Davidson diagonalization with overlap
     ethr =  1.48E-10,  avg # of iterations =  1.0

     total cpu time spent up to now is        6.5 secs

     total energy              =   -1273.75025501 Ry
     estimated scf accuracy    <       0.00000011 Ry

     iteration # 14     ecut=    80.00 Ry     beta= 0.50
     Davidson diagonalization with overlap
     ethr =  1.25E-10,  avg # of iterations =  2.8

     total cpu time spent up to now is        6.8 secs

     total energy              =   -1273.75025503 Ry
     estimated scf accuracy    <          3.5E-09 Ry

     iteration # 15     ecut=    80.00 Ry     beta= 0.50
     Davidson diagonalization with overlap
     ethr =  3.79E-12,  avg # of iterations =  6.1

     total cpu time spent up to now is        7.2 secs

     total energy              =   -1273.75025503 Ry
     estimated scf accuracy    <          2.9E-09 Ry

     iteration # 16     ecut=    80.00 Ry     beta= 0.50
     Davidson diagonalization with overlap
     ethr =  3.20E-12,  avg # of iterations =  1.3

     total cpu time spent up to now is        7.4 secs

     total energy              =   -1273.75025503 Ry
     estimated scf accuracy    <          1.4E-09 Ry

     iteration # 17     ecut=    80.00 Ry     beta= 0.50
     Davidson diagonalization with overlap
     ethr =  1.52E-12,  avg # of iterations =  4.9

     total cpu time spent up to now is        7.7 secs

     End of self-consistent calculation

          k = 0.0833 0.1443 0.0652 (  9677 PWs)   bands (ev):

   -60.5593 -60.5593 -34.1793 -34.1792 -34.1789 -34.1789 -34.1786 -34.1786
   -34.1780 -34.1780 -34.1411 -34.1410 -34.1407 -34.1407 -34.1400 -34.1397
   -34.1396 -34.1393 -34.1253 -34.1251 -34.1226 -34.1224 -24.7969 -24.7968
   -24.7340 -24.7340 -24.7010 -24.7009  -1.2736  -1.0686  -0.1247   0.2061
     7.0590   7.9136  10.1194  10.1556  10.1615  11.1081  11.2333  11.2560
    11.4881  11.5725  12.1578  12.5108  13.1919  13.3293

          k = 0.0833 0.3368 0.0652 (  9698 PWs)   bands (ev):

   -60.5547 -60.5547 -34.1792 -34.1792 -34.1787 -34.1787 -34.1766 -34.1766
   -34.1762 -34.1761 -34.1417 -34.1414 -34.1412 -34.1411 -34.1409 -34.1408
   -34.1398 -34.1395 -34.1244 -34.1242 -34.1216 -34.1214 -24.8375 -24.8375
   -24.7740 -24.7740 -24.7306 -24.7306  -0.3972  -0.2196   0.3350   0.5709
     7.8590   8.3370   8.6210   8.8651   9.4743   9.5561  10.4207  10.6512
    11.5639  11.6046  11.7911  12.0780  12.5064  12.5484

          k = 0.0833 0.5292 0.0652 (  9715 PWs)   bands (ev):

   -60.5513 -60.5513 -34.1795 -34.1794 -34.1783 -34.1783 -34.1751 -34.1751
   -34.1748 -34.1748 -34.1421 -34.1420 -34.1418 -34.1417 -34.1411 -34.1409
   -34.1400 -34.1396 -34.1237 -34.1236 -34.1208 -34.1207 -24.9119 -24.9119
   -24.7572 -24.7572 -24.7523 -24.7523   0.4631   0.5583   0.7643   0.8596
     7.0309   7.2709   8.1828   8.2560   8.9543   9.5041  10.2328  10.2969
    11.2325  11.4295  11.6178  11.7677  12.7011  12.8876

          k = 0.0833-0.4330 0.0652 (  9707 PWs)   bands (ev):

   -60.5526 -60.5525 -34.1794 -34.1794 -34.1785 -34.1784 -34.1757 -34.1756
   -34.1753 -34.1753 -34.1420 -34.1417 -34.1416 -34.1415 -34.1411 -34.1409
   -34.1400 -34.1396 -34.1239 -34.1238 -34.1211 -34.1209 -24.8848 -24.8848
   -24.7633 -24.7633 -24.7444 -24.7443   0.1113   0.2520   0.5934   0.7569
     7.4650   7.7073   8.4896   8.5413   8.9801   9.4716  10.2552  10.4258
    11.4100  11.4453  11.6594  11.7773  12.5914  12.6665

          k = 0.0833-0.2406 0.0652 (  9681 PWs)   bands (ev):

   -60.5572 -60.5571 -34.1791 -34.1790 -34.1790 -34.1790 -34.1777 -34.1777
   -34.1771 -34.1771 -34.1413 -34.1411 -34.1409 -34.1408 -34.1405 -34.1402
   -34.1397 -34.1394 -34.1249 -34.1247 -34.1221 -34.1219 -24.7863 -24.7862
   -24.7823 -24.7823 -24.7147 -24.7147  -0.8939  -0.6970   0.0758   0.3686
     7.4961   8.2934   9.3319   9.4047   9.8352  10.4036  10.8535  11.0135
    11.4826  11.5224  12.0626  12.4333  12.7803  12.7885

          k = 0.0833-0.0481 0.0652 (  9688 PWs)   bands (ev):

   -60.5605 -60.5605 -34.1794 -34.1794 -34.1792 -34.1791 -34.1789 -34.1788
   -34.1785 -34.1785 -34.1409 -34.1409 -34.1406 -34.1406 -34.1396 -34.1395
   -34.1394 -34.1392 -34.1256 -34.1253 -34.1229 -34.1227 -24.8030 -24.8030
   -24.7055 -24.7055 -24.6934 -24.6934  -1.4769  -1.2694  -0.2324   0.1174
     6.8100   7.6805  10.3707  10.6428  10.6691  11.0594  11.0819  11.5656
    11.9274  11.9845  12.1327  12.4093  13.3800  13.6971

          k = 0.2500 0.4330 0.0652 (  9731 PWs)   bands (ev):

   -60.5513 -60.5513 -34.1785 -34.1785 -34.1776 -34.1776 -34.1758 -34.1758
   -34.1757 -34.1757 -34.1426 -34.1421 -34.1416 -34.1415 -34.1407 -34.1405
   -34.1403 -34.1399 -34.1237 -34.1236 -34.1208 -34.1207 -24.8780 -24.8780
   -24.7870 -24.7869 -24.7572 -24.7572   0.4259   0.5339   0.7622   0.8805
     7.7614   7.8417   8.3233   8.4628   9.1558   9.2371   9.7878  10.0501
    10.2979  10.3890  11.4408  11.7030  12.8510  12.9620

          k = 0.2500 0.6255 0.0652 (  9736 PWs)   bands (ev):

   -60.5504 -60.5504 -34.1782 -34.1782 -34.1771 -34.1771 -34.1758 -34.1758
   -34.1758 -34.1758 -34.1428 -34.1424 -34.1417 -34.1416 -34.1406 -34.1405
   -34.1405 -34.1401 -34.1235 -34.1235 -34.1206 -34.1205 -24.8810 -24.8810
   -24.8098 -24.8098 -24.7527 -24.7527   0.7025   0.7597   0.9000   0.9574
     7.7087   7.8247   7.9993   8.1399   9.1465   9.3346   9.5592   9.7557
    10.1537  10.3001  11.1864  11.4539  13.0978  13.2890

          k = 0.2500-0.3368 0.0652 (  9717 PWs)   bands (ev):

   -60.5529 -60.5529 -34.1790 -34.1789 -34.1782 -34.1782 -34.1761 -34.1761
   -34.1758 -34.1758 -34.1422 -34.1418 -34.1414 -34.1413 -34.1408 -34.1407
   -34.1401 -34.1397 -34.1240 -34.1239 -34.1211 -34.1210 -24.8636 -24.8636
   -24.7650 -24.7650 -24.7564 -24.7564   0.0162   0.1672   0.5507   0.7331
     7.8604   8.0571   8.6833   8.7724   9.0473   9.3059   9.9008  10.3390
    10.8750  10.9848  11.7938  11.9187  12.6891  12.7300

          k = 0.2500-0.1443 0.0652 (  9692 PWs)   bands (ev):

   -60.5562 -60.5562 -34.1793 -34.1792 -34.1790 -34.1789 -34.1772 -34.1772
   -34.1767 -34.1766 -34.1413 -34.1412 -34.1410 -34.1410 -34.1407 -34.1405
   -34.1397 -34.1394 -34.1247 -34.1245 -34.1219 -34.1217 -24.8063 -24.8063
   -24.7818 -24.7817 -24.7168 -24.7168  -0.7196  -0.5283   0.1667   0.4401
     7.6483   8.3526   8.9831   9.1146   9.6245   9.9998  11.0359  11.1134
    11.5840  11.7046  11.7809  12.1455  12.5195  12.5878

          k = 0.4167 0.7217 0.0652 (  9716 PWs)   bands (ev):

   -60.5507 -60.5507 -34.1789 -34.1788 -34.1778 -34.1777 -34.1753 -34.1753
   -34.1752 -34.1752 -34.1426 -34.1422 -34.1419 -34.1417 -34.1408 -34.1406
   -34.1403 -34.1399 -34.1236 -34.1235 -34.1206 -34.1206 -24.9016 -24.9016
   -24.7794 -24.7794 -24.7543 -24.7543   0.6183   0.6893   0.8496   0.9179
     7.2642   7.4768   8.1053   8.1463   9.0141   9.4448  10.0297  10.1896
    10.5646  10.8292  11.1866  11.5125  12.9214  13.1457

          k = 0.4167-0.2406 0.0652 (  9721 PWs)   bands (ev):

   -60.5520 -60.5520 -34.1797 -34.1796 -34.1786 -34.1786 -34.1752 -34.1752
   -34.1749 -34.1748 -34.1419 -34.1417 -34.1417 -34.1414 -34.1413 -34.1412
   -34.1399 -34.1395 -34.1238 -34.1237 -34.1209 -34.1208 -24.9052 -24.9052
   -24.7605 -24.7605 -24.7401 -24.7400   0.2759   0.3970   0.6703   0.8016
     7.1180   7.3652   8.2912   8.3938   8.9452   9.5061  10.3914  10.4800
    11.2012  11.4995  12.2037  12.2658  12.4217  12.4572

     highest occupied level (ev):    13.6971

!    total energy              =   -1273.75025503 Ry
     estimated scf accuracy    <          8.3E-11 Ry

     convergence has been achieved in  17 iterations

     Forces acting on atoms (cartesian axes, Ry/au):

     atom    1 type  1   force =     0.00000000   -0.00000000    0.00000000
     atom    2 type  1   force =     0.00000000    0.00000000    0.00000000
     atom    3 type  2   force =    -0.00000000   -0.00000000   -0.01864288
     atom    4 type  2   force =     0.00000000    0.00000000    0.01864288
     atom    5 type  2   force =     0.00000000   -0.00000000   -0.01864288
     atom    6 type  2   force =     0.00000000    0.00000000    0.01864288

     Total force =     0.037286     Total SCF correction =     0.000052


     Computing stress (Cartesian axis) and pressure

          total   stress  (Ry/bohr**3)                   (kbar)     P=       40.87
   0.00025292  -0.00000000   0.00000000           37.21       -0.00        0.00
  -0.00000000   0.00025292   0.00000000           -0.00       37.21        0.00
   0.00000000   0.00000000   0.00032768            0.00        0.00       48.20


     Minimization using the FIRE algorithm

     FIRE input parameters:

      fire_nmin =  5 fire_f_inc = 1.10 fire_f_dec = 0.50 fire_alpha = 0.20 fire_falpha = 0.99 dtmax = 200.0

     Entering FIRE :       iteration =     1

     FIRE Parameters: P = 0.00000000, dt = 20.00, alpha = 0.200 nsteppos =   1 at step  1


ATOMIC_POSITIONS (crystal)
W                0.3333333430        0.6666666870        0.7500000000
W                0.6666666270        0.3333333130        0.2500000000
Se               0.3333333430        0.6666666870        0.1192876154
Se               0.6666666270        0.3333333130        0.8807123916
Se               0.6666666270        0.3333333130        0.6192876084
Se               0.3333333430        0.6666666870        0.3807123916



     Writing config-only to output data dir ./WSe.save/ :
     XML data file
     NEW-OLD atomic charge density approx. for the potential

     total cpu time spent up to now is        9.0 secs

     Self-consistent Calculation

     iteration #  1     ecut=    80.00 Ry     beta= 0.50
     Davidson diagonalization with overlap
     ethr =  1.00E-06,  avg # of iterations =  5.0

     Threshold (ethr) on eigenvalues was too large:
     Diagonalizing with lowered threshold

     Davidson diagonalization with overlap
     ethr =  1.16E-08,  avg # of iterations =  7.5

     total cpu time spent up to now is        9.9 secs

     total energy              =   -1273.75080606 Ry
     estimated scf accuracy    <       0.00001346 Ry

     iteration #  2     ecut=    80.00 Ry     beta= 0.50
     Davidson diagonalization with overlap
     ethr =  1.46E-08,  avg # of iterations =  5.7

     total cpu time spent up to now is       10.3 secs

     total energy              =   -1273.75080602 Ry
     estimated scf accuracy    <       0.00002284 Ry

     iteration #  3     ecut=    80.00 Ry     beta= 0.50
     Davidson diagonalization with overlap
     ethr =  1.46E-08,  avg # of iterations =  4.8

     total cpu time spent up to now is       10.6 secs

     total energy              =   -1273.75081013 Ry
     estimated scf accuracy    <       0.00000061 Ry

     iteration #  4     ecut=    80.00 Ry     beta= 0.50
     Davidson diagonalization with overlap
     ethr =  6.60E-10,  avg # of iterations =  5.0

     total cpu time spent up to now is       11.0 secs

     total energy              =   -1273.75081017 Ry
     estimated scf accuracy    <       0.00000057 Ry

     iteration #  5     ecut=    80.00 Ry     beta= 0.50
     Davidson diagonalization with overlap
     ethr =  6.20E-10,  avg # of iterations =  3.8

     total cpu time spent up to now is       11.3 secs

     total energy              =   -1273.75081024 Ry
     estimated scf accuracy    <       0.00000001 Ry

     iteration #  6     ecut=    80.00 Ry     beta= 0.50
     Davidson diagonalization with overlap
     ethr =  1.29E-11,  avg # of iterations =  7.9

     total cpu time spent up to now is       11.7 secs

     total energy              =   -1273.75081025 Ry
     estimated scf accuracy    <       0.00000005 Ry

     iteration #  7     ecut=    80.00 Ry     beta= 0.50
     Davidson diagonalization with overlap
     ethr =  1.29E-11,  avg # of iterations =  5.1

     total cpu time spent up to now is       12.0 secs

     total energy              =   -1273.75081025 Ry
     estimated scf accuracy    <          4.4E-09 Ry

     iteration #  8     ecut=    80.00 Ry     beta= 0.50
     Davidson diagonalization with overlap
     ethr =  4.79E-12,  avg # of iterations =  5.3

     total cpu time spent up to now is       12.4 secs

     total energy              =   -1273.75081025 Ry
     estimated scf accuracy    <          2.4E-09 Ry

     iteration #  9     ecut=    80.00 Ry     beta= 0.50
     Davidson diagonalization with overlap
     ethr =  2.61E-12,  avg # of iterations =  2.2

     total cpu time spent up to now is       12.6 secs

     total energy              =   -1273.75081025 Ry
     estimated scf accuracy    <          5.2E-10 Ry

     iteration # 10     ecut=    80.00 Ry     beta= 0.50
     Davidson diagonalization with overlap
     ethr =  5.60E-13,  avg # of iterations =  5.2

     total cpu time spent up to now is       13.0 secs

     total energy              =   -1273.75081026 Ry
     estimated scf accuracy    <          1.0E-10 Ry

     iteration # 11     ecut=    80.00 Ry     beta= 0.50
     Davidson diagonalization with overlap
     ethr =  1.11E-13,  avg # of iterations =  3.1

     total cpu time spent up to now is       13.3 secs

     End of self-consistent calculation

          k = 0.0833 0.1443 0.0652 (  9677 PWs)   bands (ev):

   -60.5621 -60.5621 -34.1767 -34.1766 -34.1764 -34.1763 -34.1760 -34.1760
   -34.1755 -34.1754 -34.1392 -34.1391 -34.1388 -34.1388 -34.1381 -34.1379
   -34.1377 -34.1374 -34.1237 -34.1235 -34.1211 -34.1209 -24.7980 -24.7980
   -24.7338 -24.7338 -24.7009 -24.7009  -1.2614  -1.0524  -0.1253   0.2105
     7.0620   7.9234  10.1384  10.1616  10.1783  11.1211  11.2563  11.2793
    11.5044  11.5898  12.1654  12.5067  13.1868  13.3234

          k = 0.0833 0.3368 0.0652 (  9698 PWs)   bands (ev):

   -60.5575 -60.5575 -34.1767 -34.1766 -34.1762 -34.1761 -34.1740 -34.1740
   -34.1736 -34.1736 -34.1398 -34.1395 -34.1393 -34.1392 -34.1390 -34.1389
   -34.1380 -34.1376 -34.1228 -34.1226 -34.1201 -34.1199 -24.8370 -24.8369
   -24.7753 -24.7753 -24.7304 -24.7304  -0.3858  -0.2049   0.3383   0.5777
     7.8690   8.3544   8.6283   8.8713   9.4868   9.5670  10.4323  10.6665
    11.5762  11.6165  11.7914  12.0726  12.5135  12.5536

          k = 0.0833 0.5292 0.0652 (  9715 PWs)   bands (ev):

   -60.5541 -60.5541 -34.1769 -34.1769 -34.1758 -34.1758 -34.1726 -34.1726
   -34.1723 -34.1722 -34.1403 -34.1402 -34.1399 -34.1398 -34.1392 -34.1391
   -34.1382 -34.1378 -34.1221 -34.1220 -34.1193 -34.1192 -24.9111 -24.9111
   -24.7586 -24.7586 -24.7521 -24.7521   0.4754   0.5720   0.7715   0.8680
     7.0407   7.2844   8.1861   8.2601   8.9626   9.5182  10.2468  10.3120
    11.2232  11.4258  11.6221  11.7770  12.7063  12.8954

          k = 0.0833-0.4330 0.0652 (  9707 PWs)   bands (ev):

   -60.5554 -60.5554 -34.1768 -34.1768 -34.1759 -34.1759 -34.1731 -34.1731
   -34.1727 -34.1727 -34.1401 -34.1398 -34.1397 -34.1396 -34.1392 -34.1390
   -34.1381 -34.1377 -34.1224 -34.1222 -34.1196 -34.1194 -24.8841 -24.8841
   -24.7647 -24.7647 -24.7442 -24.7441   0.1229   0.2659   0.5991   0.7649
     7.4773   7.7233   8.4926   8.5445   8.9887   9.4851  10.2673  10.4412
    11.4060  11.4491  11.6667  11.7772  12.5994  12.6753

          k = 0.0833-0.2406 0.0652 (  9681 PWs)   bands (ev):

   -60.5600 -60.5599 -34.1765 -34.1765 -34.1764 -34.1764 -34.1751 -34.1751
   -34.1746 -34.1745 -34.1395 -34.1392 -34.1390 -34.1389 -34.1386 -34.1384
   -34.1378 -34.1375 -34.1233 -34.1231 -34.1206 -34.1204 -24.7875 -24.7875
   -24.7820 -24.7820 -24.7146 -24.7145  -0.8822  -0.6815   0.0768   0.3740
     7.5002   8.3033   9.3501   9.4239   9.8397  10.4165  10.8674  11.0289
    11.5031  11.5435  12.0642  12.4282  12.7780  12.7869

          k = 0.0833-0.0481 0.0652 (  9688 PWs)   bands (ev):

   -60.5633 -60.5633 -34.1768 -34.1768 -34.1766 -34.1765 -34.1763 -34.1763
   -34.1760 -34.1759 -34.1390 -34.1390 -34.1387 -34.1387 -34.1378 -34.1377
   -34.1375 -34.1373 -34.1240 -34.1237 -34.1214 -34.1212 -24.8041 -24.8041
   -24.7054 -24.7054 -24.6933 -24.6933  -1.4645  -1.2527  -0.2339   0.1211
     6.8127   7.6904  10.3623  10.6662  10.6930  11.0833  11.1063  11.5769
    11.9446  12.0029  12.1460  12.4070  13.3750  13.6895

          k = 0.2500 0.4330 0.0652 (  9731 PWs)   bands (ev):

   -60.5541 -60.5541 -34.1760 -34.1759 -34.1750 -34.1750 -34.1733 -34.1733
   -34.1732 -34.1732 -34.1407 -34.1402 -34.1397 -34.1397 -34.1388 -34.1387
   -34.1385 -34.1381 -34.1221 -34.1220 -34.1193 -34.1192 -24.8773 -24.8773
   -24.7867 -24.7866 -24.7586 -24.7586   0.4378   0.5473   0.7692   0.8889
     7.7746   7.8542   8.3347   8.4766   9.1611   9.2410   9.7929  10.0585
    10.3058  10.4016  11.4318  11.6994  12.8566  12.9704

          k = 0.2500 0.6255 0.0652 (  9736 PWs)   bands (ev):

   -60.5532 -60.5532 -34.1756 -34.1756 -34.1746 -34.1745 -34.1732 -34.1732
   -34.1732 -34.1732 -34.1409 -34.1405 -34.1398 -34.1397 -34.1387 -34.1387
   -34.1386 -34.1383 -34.1219 -34.1219 -34.1191 -34.1190 -24.8803 -24.8803
   -24.8094 -24.8094 -24.7541 -24.7541   0.7152   0.7733   0.9077   0.9658
     7.7183   7.8358   8.0118   8.1547   9.1546   9.3433   9.5621   9.7606
    10.1616  10.3058  11.1798  11.4503  13.1020  13.2962

          k = 0.2500-0.3368 0.0652 (  9717 PWs)   bands (ev):

   -60.5557 -60.5557 -34.1764 -34.1764 -34.1756 -34.1756 -34.1736 -34.1735
   -34.1733 -34.1732 -34.1403 -34.1399 -34.1396 -34.1394 -34.1390 -34.1388
   -34.1382 -34.1378 -34.1224 -34.1223 -34.1197 -34.1195 -24.8630 -24.8630
   -24.7664 -24.7663 -24.7562 -24.7561   0.0277   0.1812   0.5559   0.7409
     7.8747   8.0735   8.6870   8.7780   9.0591   9.3177   9.9082  10.3504
    10.8844  10.9961  11.7861  11.9151  12.6958  12.7389

          k = 0.2500-0.1443 0.0652 (  9692 PWs)   bands (ev):

   -60.5591 -60.5590 -34.1767 -34.1766 -34.1764 -34.1764 -34.1747 -34.1746
   -34.1741 -34.1741 -34.1394 -34.1393 -34.1391 -34.1391 -34.1389 -34.1386
   -34.1379 -34.1375 -34.1231 -34.1229 -34.1204 -34.1203 -24.8058 -24.8058
   -24.7830 -24.7830 -24.7167 -24.7166  -0.7080  -0.5131   0.1685   0.4461
     7.6539   8.3637   8.9985   9.1287   9.6334  10.0112  11.0532  11.1323
    11.5785  11.7250  11.8032  12.1385  12.5181  12.5873

          k = 0.4167 0.7217 0.0652 (  9716 PWs)   bands (ev):

   -60.5536 -60.5536 -34.1763 -34.1763 -34.1752 -34.1752 -34.1728 -34.1728
   -34.1726 -34.1726 -34.1407 -34.1402 -34.1400 -34.1398 -34.1389 -34.1388
   -34.1384 -34.1380 -34.1220 -34.1219 -34.1192 -34.1191 -24.9008 -24.9008
   -24.7791 -24.7791 -24.7558 -24.7558   0.6309   0.7030   0.8572   0.9263
     7.2734   7.4892   8.1141   8.1549   9.0225   9.4566  10.0386  10.1965
    10.5700  10.8397  11.1781  11.5083  12.9257  13.1529

          k = 0.4167-0.2406 0.0652 (  9721 PWs)   bands (ev):

   -60.5548 -60.5548 -34.1771 -34.1770 -34.1761 -34.1760 -34.1727 -34.1727
   -34.1723 -34.1723 -34.1401 -34.1399 -34.1398 -34.1395 -34.1394 -34.1393
   -34.1381 -34.1376 -34.1222 -34.1221 -34.1194 -34.1193 -24.9044 -24.9044
   -24.7619 -24.7619 -24.7399 -24.7399   0.2878   0.4108   0.6769   0.8098
     7.1289   7.3799   8.2932   8.3962   8.9527   9.5201  10.4089  10.4993
    11.1914  11.4919  12.2053  12.2778  12.4250  12.4735

     highest occupied level (ev):    13.6895

!    total energy              =   -1273.75081026 Ry
     estimated scf accuracy    <          1.5E-11 Ry

     convergence has been achieved in  11 iterations

     Forces acting on atoms (cartesian axes, Ry/au):

     atom    1 type  1   force =     0.00000000    0.00000000    0.00000000
     atom    2 type  1   force =     0.00000000    0.00000000    0.00000000
     atom    3 type  2   force =     0.00000000    0.00000000   -0.01529228
     atom    4 type  2   force =     0.00000000    0.00000000    0.01529228
     atom    5 type  2   force =     0.00000000    0.00000000   -0.01529228
     atom    6 type  2   force =     0.00000000    0.00000000    0.01529228

     Total force =     0.030585     Total SCF correction =     0.000023


     Computing stress (Cartesian axis) and pressure

          total   stress  (Ry/bohr**3)                   (kbar)     P=       37.05
   0.00023541  -0.00000000   0.00000000           34.63       -0.00        0.00
  -0.00000000   0.00023541   0.00000000           -0.00       34.63        0.00
   0.00000000  -0.00000000   0.00028484            0.00       -0.00       41.90


     Entering FIRE :       iteration =     2

     FIRE Parameters: P = 0.00000402, dt = 20.00, alpha = 0.200 nsteppos =   2 at step  2


ATOMIC_POSITIONS (crystal)
W                0.3333333430        0.6666666870        0.7500000000
W                0.6666666270        0.3333333130        0.2500000000
Se               0.3333333430        0.6666666870        0.1186641451
Se               0.6666666270        0.3333333130        0.8813358619
Se               0.6666666270        0.3333333130        0.6186641381
Se               0.3333333430        0.6666666870        0.3813358619



     Writing config-only to output data dir ./WSe.save/ :
     XML data file
     NEW-OLD atomic charge density approx. for the potential

     total cpu time spent up to now is       13.9 secs

     Self-consistent Calculation

     iteration #  1     ecut=    80.00 Ry     beta= 0.50
     Davidson diagonalization with overlap
     ethr =  1.00E-06,  avg # of iterations =  5.6

     Threshold (ethr) on eigenvalues was too large:
     Diagonalizing with lowered threshold

     Davidson diagonalization with overlap
     ethr =  2.52E-08,  avg # of iterations =  7.6

     total cpu time spent up to now is       14.8 secs

     total energy              =   -1273.75152552 Ry
     estimated scf accuracy    <       0.00004864 Ry

     iteration #  2     ecut=    80.00 Ry     beta= 0.50
     Davidson diagonalization with overlap
     ethr =  5.29E-08,  avg # of iterations =  5.8

     total cpu time spent up to now is       15.2 secs

     total energy              =   -1273.75152479 Ry
     estimated scf accuracy    <       0.00009908 Ry

     iteration #  3     ecut=    80.00 Ry     beta= 0.50
     Davidson diagonalization with overlap
     ethr =  5.29E-08,  avg # of iterations =  5.2

     total cpu time spent up to now is       15.5 secs

     total energy              =   -1273.75154131 Ry
     estimated scf accuracy    <       0.00000195 Ry

     iteration #  4     ecut=    80.00 Ry     beta= 0.50
     Davidson diagonalization with overlap
     ethr =  2.12E-09,  avg # of iterations =  4.8

     total cpu time spent up to now is       15.8 secs

     total energy              =   -1273.75154153 Ry
     estimated scf accuracy    <       0.00000161 Ry

     iteration #  5     ecut=    80.00 Ry     beta= 0.50
     Davidson diagonalization with overlap
     ethr =  1.75E-09,  avg # of iterations =  3.8

     total cpu time spent up to now is       16.1 secs

     total energy              =   -1273.75154174 Ry
     estimated scf accuracy    <       0.00000005 Ry

     iteration #  6     ecut=    80.00 Ry     beta= 0.50
     Davidson diagonalization with overlap
     ethr =  5.05E-11,  avg # of iterations =  7.2

     total cpu time spent up to now is       16.6 secs

     total energy              =   -1273.75154177 Ry
     estimated scf accuracy    <       0.00000017 Ry

     iteration #  7     ecut=    80.00 Ry     beta= 0.50
     Davidson diagonalization with overlap
     ethr =  5.05E-11,  avg # of iterations =  4.3

     total cpu time spent up to now is       16.9 secs

     total energy              =   -1273.75154178 Ry
     estimated scf accuracy    <       0.00000002 Ry

     iteration #  8     ecut=    80.00 Ry     beta= 0.50
     Davidson diagonalization with overlap
     ethr =  2.15E-11,  avg # of iterations =  5.3

     total cpu time spent up to now is       17.2 secs

     total energy              =   -1273.75154178 Ry
     estimated scf accuracy    <       0.00000001 Ry

     iteration #  9     ecut=    80.00 Ry     beta= 0.50
     Davidson diagonalization with overlap
     ethr =  1.24E-11,  avg # of iterations =  2.2

     total cpu time spent up to now is       17.5 secs

     total energy              =   -1273.75154178 Ry
     estimated scf accuracy    <          2.4E-09 Ry

     iteration # 10     ecut=    80.00 Ry     beta= 0.50
     Davidson diagonalization with overlap
     ethr =  2.58E-12,  avg # of iterations =  4.8

     total cpu time spent up to now is       17.8 secs

     End of self-consistent calculation

          k = 0.0833 0.1443 0.0652 (  9677 PWs)   bands (ev):

   -60.5672 -60.5672 -34.1722 -34.1721 -34.1719 -34.1718 -34.1715 -34.1715
   -34.1710 -34.1709 -34.1359 -34.1358 -34.1355 -34.1355 -34.1349 -34.1346
   -34.1345 -34.1342 -34.1210 -34.1208 -34.1186 -34.1184 -24.8002 -24.8002
   -24.7335 -24.7335 -24.7008 -24.7008  -1.2399  -1.0232  -0.1263   0.2186
     7.0672   7.9410  10.1480  10.1862  10.2192  11.1447  11.2977  11.3214
    11.5340  11.6211  12.1796  12.4994  13.1775  13.3128

          k = 0.0833 0.3368 0.0652 (  9698 PWs)   bands (ev):

   -60.5627 -60.5627 -34.1722 -34.1721 -34.1717 -34.1716 -34.1695 -34.1695
   -34.1691 -34.1691 -34.1365 -34.1362 -34.1361 -34.1359 -34.1357 -34.1356
   -34.1348 -34.1344 -34.1201 -34.1199 -34.1175 -34.1174 -24.8361 -24.8360
   -24.7778 -24.7777 -24.7302 -24.7302  -0.3655  -0.1788   0.3444   0.5902
     7.8865   8.3851   8.6419   8.8824   9.5095   9.5866  10.4529  10.6942
    11.5974  11.6367  11.7935  12.0635  12.5268  12.5631

          k = 0.0833 0.5292 0.0652 (  9715 PWs)   bands (ev):

   -60.5593 -60.5593 -34.1724 -34.1723 -34.1713 -34.1713 -34.1681 -34.1680
   -34.1678 -34.1677 -34.1370 -34.1369 -34.1366 -34.1365 -34.1360 -34.1358
   -34.1350 -34.1345 -34.1194 -34.1193 -34.1167 -34.1166 -24.9098 -24.9098
   -24.7613 -24.7612 -24.7518 -24.7518   0.4971   0.5963   0.7848   0.8834
     7.0584   7.3089   8.1920   8.2674   8.9775   9.5437  10.2723  10.3395
    11.2067  11.4189  11.6304  11.7937  12.7155  12.9093

          k = 0.0833-0.4330 0.0652 (  9707 PWs)   bands (ev):

   -60.5605 -60.5605 -34.1723 -34.1722 -34.1715 -34.1714 -34.1686 -34.1686
   -34.1683 -34.1682 -34.1368 -34.1366 -34.1364 -34.1363 -34.1359 -34.1357
   -34.1349 -34.1345 -34.1196 -34.1195 -34.1170 -34.1169 -24.8829 -24.8829
   -24.7673 -24.7673 -24.7439 -24.7439   0.1435   0.2907   0.6097   0.7795
     7.4994   7.7522   8.4980   8.5501   9.0043   9.5097  10.2890  10.4692
    11.3986  11.4551  11.6797  11.7786  12.6136  12.6912

          k = 0.0833-0.2406 0.0652 (  9681 PWs)   bands (ev):

   -60.5651 -60.5651 -34.1720 -34.1720 -34.1719 -34.1719 -34.1706 -34.1706
   -34.1701 -34.1700 -34.1362 -34.1359 -34.1357 -34.1357 -34.1354 -34.1351
   -34.1346 -34.1343 -34.1206 -34.1204 -34.1181 -34.1179 -24.7898 -24.7898
   -24.7814 -24.7814 -24.7144 -24.7144  -0.8614  -0.6537   0.0787   0.3841
     7.5074   8.3207   9.3830   9.4584   9.8479  10.4402  10.8924  11.0567
    11.5399  11.5815  12.0678  12.4191  12.7739  12.7843

          k = 0.0833-0.0481 0.0652 (  9688 PWs)   bands (ev):

   -60.5685 -60.5685 -34.1723 -34.1722 -34.1721 -34.1720 -34.1718 -34.1718
   -34.1715 -34.1714 -34.1358 -34.1358 -34.1354 -34.1354 -34.1346 -34.1344
   -34.1343 -34.1341 -34.1213 -34.1210 -34.1189 -34.1186 -24.8062 -24.8062
   -24.7053 -24.7053 -24.6933 -24.6933  -1.4424  -1.2229  -0.2364   0.1282
     6.8172   7.7082  10.3470  10.7084  10.7363  11.1263  11.1503  11.5970
    11.9759  12.0363  12.1704  12.4034  13.3662  13.6758

          k = 0.2500 0.4330 0.0652 (  9731 PWs)   bands (ev):

   -60.5593 -60.5593 -34.1714 -34.1714 -34.1705 -34.1705 -34.1688 -34.1688
   -34.1687 -34.1687 -34.1374 -34.1369 -34.1365 -34.1364 -34.1355 -34.1354
   -34.1353 -34.1348 -34.1194 -34.1193 -34.1168 -34.1167 -24.8761 -24.8761
   -24.7862 -24.7862 -24.7613 -24.7613   0.4589   0.5711   0.7822   0.9043
     7.7985   7.8767   8.3552   8.5013   9.1706   9.2477   9.8026  10.0736
    10.3203  10.4245  11.4157  11.6934  12.8663  12.9854

          k = 0.2500 0.6255 0.0652 (  9736 PWs)   bands (ev):

   -60.5584 -60.5584 -34.1711 -34.1710 -34.1701 -34.1700 -34.1687 -34.1687
   -34.1687 -34.1687 -34.1376 -34.1371 -34.1366 -34.1365 -34.1355 -34.1354
   -34.1354 -34.1350 -34.1192 -34.1192 -34.1165 -34.1165 -24.8791 -24.8791
   -24.8089 -24.8089 -24.7569 -24.7568   0.7379   0.7975   0.9217   0.9812
     7.7354   7.8557   8.0344   8.1814   9.1689   9.3586   9.5675   9.7696
    10.1764  10.3164  11.1684  11.4442  13.1092  13.3088

          k = 0.2500-0.3368 0.0652 (  9717 PWs)   bands (ev):

   -60.5609 -60.5609 -34.1719 -34.1718 -34.1711 -34.1711 -34.1690 -34.1690
   -34.1688 -34.1688 -34.1370 -34.1366 -34.1363 -34.1362 -34.1357 -34.1355
   -34.1350 -34.1346 -34.1197 -34.1196 -34.1171 -34.1170 -24.8619 -24.8619
   -24.7689 -24.7689 -24.7559 -24.7558   0.0480   0.2060   0.5656   0.7551
     7.9003   8.1030   8.6935   8.7877   9.0805   9.3392   9.9219  10.3714
    10.9013  11.0167  11.7723  11.9091  12.7076  12.7550

          k = 0.2500-0.1443 0.0652 (  9692 PWs)   bands (ev):

   -60.5642 -60.5642 -34.1722 -34.1721 -34.1719 -34.1719 -34.1701 -34.1701
   -34.1696 -34.1696 -34.1361 -34.1360 -34.1359 -34.1358 -34.1356 -34.1354
   -34.1347 -34.1343 -34.1204 -34.1202 -34.1179 -34.1177 -24.8051 -24.8051
   -24.7854 -24.7854 -24.7165 -24.7165  -0.6875  -0.4859   0.1719   0.4570
     7.6635   8.3832   9.0264   9.1543   9.6499  10.0319  11.0844  11.1665
    11.5690  11.7618  11.8433  12.1262  12.5156  12.5864

          k = 0.4167 0.7217 0.0652 (  9716 PWs)   bands (ev):

   -60.5588 -60.5587 -34.1718 -34.1717 -34.1707 -34.1707 -34.1683 -34.1683
   -34.1681 -34.1681 -34.1374 -34.1369 -34.1367 -34.1366 -34.1356 -34.1355
   -34.1352 -34.1348 -34.1193 -34.1192 -34.1166 -34.1165 -24.8995 -24.8995
   -24.7787 -24.7787 -24.7585 -24.7585   0.6533   0.7272   0.8711   0.9417
     7.2899   7.5116   8.1297   8.1703   9.0378   9.4780  10.0550  10.2090
    10.5797  10.8588  11.1633  11.5012  12.9332  13.1657

          k = 0.4167-0.2406 0.0652 (  9721 PWs)   bands (ev):

   -60.5600 -60.5600 -34.1726 -34.1725 -34.1716 -34.1715 -34.1682 -34.1682
   -34.1678 -34.1678 -34.1368 -34.1366 -34.1365 -34.1363 -34.1361 -34.1361
   -34.1348 -34.1344 -34.1195 -34.1194 -34.1169 -34.1168 -24.9031 -24.9031
   -24.7645 -24.7645 -24.7397 -24.7396   0.3089   0.4352   0.6889   0.8249
     7.1483   7.4065   8.2966   8.4005   8.9663   9.5454  10.4405  10.5343
    11.1739  11.4784  12.2082  12.2994  12.4309  12.5030

     highest occupied level (ev):    13.6758

!    total energy              =   -1273.75154178 Ry
     estimated scf accuracy    <          7.2E-12 Ry

     convergence has been achieved in  10 iterations

     Forces acting on atoms (cartesian axes, Ry/au):

     atom    1 type  1   force =    -0.00000000   -0.00000000    0.00000000
     atom    2 type  1   force =     0.00000000    0.00000000    0.00000000
     atom    3 type  2   force =     0.00000000   -0.00000000   -0.00928620
     atom    4 type  2   force =     0.00000000    0.00000000    0.00928620
     atom    5 type  2   force =     0.00000000    0.00000000   -0.00928620
     atom    6 type  2   force =     0.00000000   -0.00000000    0.00928620

     Total force =     0.018572     Total SCF correction =     0.000017


     Computing stress (Cartesian axis) and pressure

          total   stress  (Ry/bohr**3)                   (kbar)     P=       30.19
   0.00020414  -0.00000000   0.00000000           30.03       -0.00        0.00
  -0.00000000   0.00020414   0.00000000           -0.00       30.03        0.00
  -0.00000000   0.00000000   0.00020749           -0.00        0.00       30.52


     Entering FIRE :       iteration =     3

     FIRE Parameters: P = 0.00000444, dt = 20.00, alpha = 0.200 nsteppos =   3 at step  3


ATOMIC_POSITIONS (crystal)
W                0.3333333430        0.6666666870        0.7500000000
W                0.6666666270        0.3333333130        0.2500000000
Se               0.3333333430        0.6666666870        0.1178700650
Se               0.6666666270        0.3333333130        0.8821299420
Se               0.6666666270        0.3333333130        0.6178700580
Se               0.3333333430        0.6666666870        0.3821299420



     Writing config-only to output data dir ./WSe.save/ :
     XML data file
     NEW-OLD atomic charge density approx. for the potential

     total cpu time spent up to now is       18.2 secs

     Self-consistent Calculation

     iteration #  1     ecut=    80.00 Ry     beta= 0.50
     Davidson diagonalization with overlap
     ethr =  1.00E-06,  avg # of iterations =  6.4

     Threshold (ethr) on eigenvalues was too large:
     Diagonalizing with lowered threshold

     Davidson diagonalization with overlap
     ethr =  4.49E-08,  avg # of iterations =  7.2

     total cpu time spent up to now is       19.2 secs

     total energy              =   -1273.75193512 Ry
     estimated scf accuracy    <       0.00007818 Ry

     iteration #  2     ecut=    80.00 Ry     beta= 0.50
     Davidson diagonalization with overlap
     ethr =  8.50E-08,  avg # of iterations =  5.7

     total cpu time spent up to now is       19.5 secs

     total energy              =   -1273.75193369 Ry
     estimated scf accuracy    <       0.00016047 Ry

     iteration #  3     ecut=    80.00 Ry     beta= 0.50
     Davidson diagonalization with overlap
     ethr =  8.50E-08,  avg # of iterations =  5.3

     total cpu time spent up to now is       19.8 secs

     total energy              =   -1273.75196054 Ry
     estimated scf accuracy    <       0.00000375 Ry

     iteration #  4     ecut=    80.00 Ry     beta= 0.50
     Davidson diagonalization with overlap
     ethr =  4.07E-09,  avg # of iterations =  4.8

     total cpu time spent up to now is       20.2 secs

     total energy              =   -1273.75196091 Ry
     estimated scf accuracy    <       0.00000217 Ry

     iteration #  5     ecut=    80.00 Ry     beta= 0.50
     Davidson diagonalization with overlap
     ethr =  2.36E-09,  avg # of iterations =  4.0

     total cpu time spent up to now is       20.5 secs

     total energy              =   -1273.75196126 Ry
     estimated scf accuracy    <       0.00000004 Ry

     iteration #  6     ecut=    80.00 Ry     beta= 0.50
     Davidson diagonalization with overlap
     ethr =  4.26E-11,  avg # of iterations =  7.7

     total cpu time spent up to now is       20.9 secs

     total energy              =   -1273.75196128 Ry
     estimated scf accuracy    <       0.00000011 Ry

     iteration #  7     ecut=    80.00 Ry     beta= 0.50
     Davidson diagonalization with overlap
     ethr =  4.26E-11,  avg # of iterations =  4.3

     total cpu time spent up to now is       21.2 secs

     total energy              =   -1273.75196128 Ry
     estimated scf accuracy    <       0.00000002 Ry

     iteration #  8     ecut=    80.00 Ry     beta= 0.50
     Davidson diagonalization with overlap
     ethr =  1.68E-11,  avg # of iterations =  5.5

     total cpu time spent up to now is       21.6 secs

     total energy              =   -1273.75196129 Ry
     estimated scf accuracy    <       0.00000001 Ry

     iteration #  9     ecut=    80.00 Ry     beta= 0.50
     Davidson diagonalization with overlap
     ethr =  1.44E-11,  avg # of iterations =  2.6

     total cpu time spent up to now is       21.8 secs

     total energy              =   -1273.75196129 Ry
     estimated scf accuracy    <          1.6E-09 Ry

     iteration # 10     ecut=    80.00 Ry     beta= 0.50
     Davidson diagonalization with overlap
     ethr =  1.76E-12,  avg # of iterations =  5.2

     total cpu time spent up to now is       22.2 secs

     End of self-consistent calculation

          k = 0.0833 0.1443 0.0652 (  9677 PWs)   bands (ev):

   -60.5739 -60.5739 -34.1666 -34.1666 -34.1663 -34.1663 -34.1660 -34.1659
   -34.1654 -34.1654 -34.1319 -34.1319 -34.1316 -34.1316 -34.1310 -34.1307
   -34.1306 -34.1303 -34.1178 -34.1176 -34.1155 -34.1153 -24.8032 -24.8032
   -24.7334 -24.7334 -24.7010 -24.7010  -1.2134  -0.9870  -0.1275   0.2293
     7.0733   7.9627  10.1427  10.2343  10.2706  11.1746  11.3495  11.3741
    11.5715  11.6606  12.1987  12.4907  13.1661  13.2996

          k = 0.0833 0.3368 0.0652 (  9698 PWs)   bands (ev):

   -60.5694 -60.5694 -34.1666 -34.1666 -34.1661 -34.1661 -34.1640 -34.1639
   -34.1636 -34.1636 -34.1325 -34.1323 -34.1322 -34.1320 -34.1318 -34.1317
   -34.1309 -34.1305 -34.1169 -34.1167 -34.1145 -34.1143 -24.8352 -24.8352
   -24.7811 -24.7810 -24.7303 -24.7303  -0.3407  -0.1465   0.3524   0.6064
     7.9075   8.4224   8.6595   8.8968   9.5388   9.6115  10.4785  10.7293
    11.6222  11.6602  11.7993  12.0531  12.5443  12.5752

          k = 0.0833 0.5292 0.0652 (  9715 PWs)   bands (ev):

   -60.5660 -60.5660 -34.1668 -34.1668 -34.1658 -34.1658 -34.1625 -34.1625
   -34.1623 -34.1622 -34.1330 -34.1330 -34.1327 -34.1325 -34.1321 -34.1319
   -34.1311 -34.1306 -34.1162 -34.1161 -34.1137 -34.1136 -24.9084 -24.9084
   -24.7648 -24.7648 -24.7517 -24.7517   0.5239   0.6259   0.8021   0.9030
     7.0803   7.3397   8.1992   8.2763   8.9962   9.5762  10.3043  10.3743
    11.1865  11.4097  11.6418  11.8147  12.7267  12.9268

          k = 0.0833-0.4330 0.0652 (  9707 PWs)   bands (ev):

   -60.5673 -60.5672 -34.1668 -34.1667 -34.1659 -34.1659 -34.1631 -34.1630
   -34.1627 -34.1627 -34.1328 -34.1327 -34.1325 -34.1324 -34.1320 -34.1318
   -34.1310 -34.1306 -34.1164 -34.1163 -34.1140 -34.1139 -24.8817 -24.8817
   -24.7708 -24.7708 -24.7439 -24.7438   0.1688   0.3209   0.6236   0.7982
     7.5268   7.7886   8.5044   8.5569   9.0239   9.5410  10.3159  10.5047
    11.3893  11.4612  11.6955  11.7836  12.6312  12.7116

          k = 0.0833-0.2406 0.0652 (  9681 PWs)   bands (ev):

   -60.5718 -60.5718 -34.1665 -34.1664 -34.1664 -34.1663 -34.1651 -34.1650
   -34.1646 -34.1645 -34.1322 -34.1320 -34.1318 -34.1317 -34.1315 -34.1312
   -34.1307 -34.1304 -34.1174 -34.1172 -34.1151 -34.1149 -24.7929 -24.7929
   -24.7810 -24.7809 -24.7145 -24.7145  -0.8360  -0.6192   0.0814   0.3972
     7.5159   8.3416   9.4243   9.5020   9.8586  10.4702  10.9238  11.0918
    11.5861  11.6290  12.0734  12.4081  12.7687  12.7815

          k = 0.0833-0.0481 0.0652 (  9688 PWs)   bands (ev):

   -60.5751 -60.5751 -34.1668 -34.1667 -34.1665 -34.1664 -34.1663 -34.1662
   -34.1659 -34.1659 -34.1318 -34.1318 -34.1315 -34.1315 -34.1307 -34.1306
   -34.1304 -34.1302 -34.1181 -34.1178 -34.1158 -34.1156 -24.8091 -24.8091
   -24.7054 -24.7054 -24.6935 -24.6935  -1.4153  -1.1857  -0.2395   0.1375
     6.8226   7.7302  10.3278  10.7613  10.7906  11.1802  11.2054  11.6215
    12.0153  12.0787  12.2020  12.4000  13.3556  13.6588

          k = 0.2500 0.4330 0.0652 (  9731 PWs)   bands (ev):

   -60.5660 -60.5660 -34.1659 -34.1659 -34.1650 -34.1650 -34.1633 -34.1632
   -34.1632 -34.1632 -34.1334 -34.1329 -34.1326 -34.1325 -34.1316 -34.1315
   -34.1314 -34.1309 -34.1162 -34.1161 -34.1137 -34.1137 -24.8749 -24.8749
   -24.7859 -24.7859 -24.7648 -24.7648   0.4849   0.6001   0.7993   0.9240
     7.8283   7.9046   8.3807   8.5322   9.1826   9.2559   9.8155  10.0926
    10.3389  10.4537  11.3960  11.6865  12.8779  13.0040

          k = 0.2500 0.6255 0.0652 (  9736 PWs)   bands (ev):

   -60.5651 -60.5651 -34.1655 -34.1655 -34.1646 -34.1645 -34.1632 -34.1632
   -34.1632 -34.1632 -34.1336 -34.1331 -34.1326 -34.1326 -34.1316 -34.1315
   -34.1315 -34.1311 -34.1160 -34.1160 -34.1135 -34.1135 -24.8778 -24.8778
   -24.8085 -24.8085 -24.7605 -24.7605   0.7658   0.8272   0.9399   1.0007
     7.7568   7.8808   8.0626   8.2150   9.1867   9.3769   9.5747   9.7810
    10.1954  10.3303  11.1550  11.4374  13.1177  13.3242

          k = 0.2500-0.3368 0.0652 (  9717 PWs)   bands (ev):

   -60.5676 -60.5676 -34.1663 -34.1663 -34.1656 -34.1656 -34.1635 -34.1635
   -34.1633 -34.1632 -34.1330 -34.1326 -34.1324 -34.1323 -34.1318 -34.1316
   -34.1311 -34.1307 -34.1165 -34.1164 -34.1141 -34.1140 -24.8609 -24.8609
   -24.7724 -24.7723 -24.7557 -24.7557   0.0729   0.2365   0.5783   0.7734
     7.9322   8.1398   8.7011   8.7994   9.1074   9.3667   9.9396  10.3984
    10.9223  11.0425  11.7553  11.9027  12.7220  12.7752

          k = 0.2500-0.1443 0.0652 (  9692 PWs)   bands (ev):

   -60.5709 -60.5709 -34.1666 -34.1666 -34.1664 -34.1663 -34.1646 -34.1645
   -34.1641 -34.1640 -34.1322 -34.1321 -34.1320 -34.1318 -34.1317 -34.1315
   -34.1308 -34.1304 -34.1172 -34.1170 -34.1149 -34.1147 -24.8045 -24.8045
   -24.7886 -24.7886 -24.7166 -24.7166  -0.6623  -0.4522   0.1764   0.4713
     7.6750   8.4064   9.0617   9.1867   9.6714  10.0582  11.1239  11.2099
    11.5576  11.8078  11.8938  12.1109  12.5127  12.5853

          k = 0.4167 0.7217 0.0652 (  9716 PWs)   bands (ev):

   -60.5655 -60.5655 -34.1662 -34.1662 -34.1652 -34.1652 -34.1628 -34.1627
   -34.1626 -34.1626 -34.1334 -34.1330 -34.1328 -34.1327 -34.1317 -34.1316
   -34.1313 -34.1309 -34.1161 -34.1160 -34.1136 -34.1135 -24.8982 -24.8982
   -24.7784 -24.7784 -24.7621 -24.7620   0.6808   0.7569   0.8891   0.9614
     7.3105   7.5399   8.1491   8.1894   9.0570   9.5049  10.0764  10.2244
    10.5917  10.8831  11.1455  11.4931  12.9420  13.1814

          k = 0.4167-0.2406 0.0652 (  9721 PWs)   bands (ev):

   -60.5667 -60.5667 -34.1670 -34.1669 -34.1661 -34.1660 -34.1626 -34.1626
   -34.1623 -34.1623 -34.1329 -34.1327 -34.1326 -34.1323 -34.1321 -34.1321
   -34.1310 -34.1305 -34.1163 -34.1162 -34.1139 -34.1137 -24.9018 -24.9018
   -24.7680 -24.7680 -24.7396 -24.7396   0.3349   0.4651   0.7047   0.8442
     7.1725   7.4400   8.3009   8.4058   8.9833   9.5777  10.4804  10.5788
    11.1523  11.4620  12.2116  12.3261  12.4383  12.5401

     highest occupied level (ev):    13.6588

!    total energy              =   -1273.75196129 Ry
     estimated scf accuracy    <          9.3E-12 Ry

     convergence has been achieved in  10 iterations

     Forces acting on atoms (cartesian axes, Ry/au):

     atom    1 type  1   force =    -0.00000000   -0.00000000    0.00000000
     atom    2 type  1   force =    -0.00000000   -0.00000000    0.00000000
     atom    3 type  2   force =     0.00000000    0.00000000   -0.00180286
     atom    4 type  2   force =     0.00000000    0.00000000    0.00180286
     atom    5 type  2   force =     0.00000000    0.00000000   -0.00180286
     atom    6 type  2   force =     0.00000000    0.00000000    0.00180286

     Total force =     0.003606     Total SCF correction =     0.000017


     Computing stress (Cartesian axis) and pressure

          total   stress  (Ry/bohr**3)                   (kbar)     P=       21.63
   0.00016548  -0.00000000   0.00000000           24.34       -0.00        0.00
  -0.00000000   0.00016548  -0.00000000           -0.00       24.34       -0.00
   0.00000000  -0.00000000   0.00011025            0.00       -0.00       16.22


     Entering FIRE :       iteration =     4

     FIRE Parameters: P = 0.00000110, dt = 20.00, alpha = 0.200 nsteppos =   4 at step  4


ATOMIC_POSITIONS (crystal)
W                0.3333333430        0.6666666870        0.7500000000
W                0.6666666270        0.3333333130        0.2500000000
Se               0.3333333430        0.6666666870        0.1170428620
Se               0.6666666270        0.3333333130        0.8829571450
Se               0.6666666270        0.3333333130        0.6170428550
Se               0.3333333430        0.6666666870        0.3829571450



     Writing config-only to output data dir ./WSe.save/ :
     XML data file
     NEW-OLD atomic charge density approx. for the potential

     total cpu time spent up to now is       22.6 secs

     Self-consistent Calculation

     iteration #  1     ecut=    80.00 Ry     beta= 0.50
     Davidson diagonalization with overlap
     ethr =  1.00E-06,  avg # of iterations =  6.9

     Threshold (ethr) on eigenvalues was too large:
     Diagonalizing with lowered threshold

     Davidson diagonalization with overlap
     ethr =  4.71E-08,  avg # of iterations =  6.9

     total cpu time spent up to now is       23.6 secs

     total energy              =   -1273.75177270 Ry
     estimated scf accuracy    <       0.00008602 Ry

     iteration #  2     ecut=    80.00 Ry     beta= 0.50
     Davidson diagonalization with overlap
     ethr =  9.35E-08,  avg # of iterations =  5.6

     total cpu time spent up to now is       23.9 secs

     total energy              =   -1273.75177039 Ry
     estimated scf accuracy    <       0.00018805 Ry

     iteration #  3     ecut=    80.00 Ry     beta= 0.50
     Davidson diagonalization with overlap
     ethr =  9.35E-08,  avg # of iterations =  5.2

     total cpu time spent up to now is       24.3 secs

     total energy              =   -1273.75180120 Ry
     estimated scf accuracy    <       0.00000363 Ry

     iteration #  4     ecut=    80.00 Ry     beta= 0.50
     Davidson diagonalization with overlap
     ethr =  3.95E-09,  avg # of iterations =  5.1

     total cpu time spent up to now is       24.6 secs

     total energy              =   -1273.75180160 Ry
     estimated scf accuracy    <       0.00000288 Ry

     iteration #  5     ecut=    80.00 Ry     beta= 0.50
     Davidson diagonalization with overlap
     ethr =  3.14E-09,  avg # of iterations =  3.9

     total cpu time spent up to now is       24.9 secs

     total energy              =   -1273.75180200 Ry
     estimated scf accuracy    <       0.00000007 Ry

     iteration #  6     ecut=    80.00 Ry     beta= 0.50
     Davidson diagonalization with overlap
     ethr =  7.25E-11,  avg # of iterations =  7.6

     total cpu time spent up to now is       25.4 secs

     total energy              =   -1273.75180204 Ry
     estimated scf accuracy    <       0.00000023 Ry

     iteration #  7     ecut=    80.00 Ry     beta= 0.50
     Davidson diagonalization with overlap
     ethr =  7.25E-11,  avg # of iterations =  4.6

     total cpu time spent up to now is       25.7 secs

     total energy              =   -1273.75180205 Ry
     estimated scf accuracy    <       0.00000003 Ry

     iteration #  8     ecut=    80.00 Ry     beta= 0.50
     Davidson diagonalization with overlap
     ethr =  2.76E-11,  avg # of iterations =  5.3

     total cpu time spent up to now is       26.0 secs

     total energy              =   -1273.75180206 Ry
     estimated scf accuracy    <       0.00000001 Ry

     iteration #  9     ecut=    80.00 Ry     beta= 0.50
     Davidson diagonalization with overlap
     ethr =  1.63E-11,  avg # of iterations =  2.2

     total cpu time spent up to now is       26.3 secs

     total energy              =   -1273.75180206 Ry
     estimated scf accuracy    <          2.7E-09 Ry

     iteration # 10     ecut=    80.00 Ry     beta= 0.50
     Davidson diagonalization with overlap
     ethr =  2.97E-12,  avg # of iterations =  4.9

     total cpu time spent up to now is       26.6 secs

     End of self-consistent calculation

          k = 0.0833 0.1443 0.0652 (  9677 PWs)   bands (ev):

   -60.5810 -60.5810 -34.1611 -34.1610 -34.1608 -34.1608 -34.1604 -34.1604
   -34.1599 -34.1599 -34.1281 -34.1280 -34.1277 -34.1277 -34.1272 -34.1269
   -34.1268 -34.1265 -34.1148 -34.1145 -34.1127 -34.1124 -24.8065 -24.8065
   -24.7336 -24.7336 -24.7015 -24.7015  -1.1872  -0.9504  -0.1283   0.2409
     7.0789   7.9844  10.1356  10.2850  10.3234  11.2054  11.4025  11.4279
    11.6103  11.7013  12.2195  12.4825  13.1546  13.2860

          k = 0.0833 0.3368 0.0652 (  9698 PWs)   bands (ev):

   -60.5765 -60.5765 -34.1611 -34.1610 -34.1606 -34.1606 -34.1585 -34.1584
   -34.1581 -34.1581 -34.1287 -34.1284 -34.1284 -34.1282 -34.1280 -34.1278
   -34.1271 -34.1267 -34.1138 -34.1137 -34.1116 -34.1115 -24.8346 -24.8346
   -24.7847 -24.7847 -24.7306 -24.7306  -0.3160  -0.1142   0.3613   0.6235
     7.9280   8.4586   8.6787   8.9119   9.5696   9.6372  10.5044  10.7656
    11.6449  11.6820  11.8095  12.0440  12.5631  12.5880

          k = 0.0833 0.5292 0.0652 (  9715 PWs)   bands (ev):

   -60.5732 -60.5732 -34.1613 -34.1612 -34.1603 -34.1603 -34.1570 -34.1570
   -34.1568 -34.1567 -34.1292 -34.1292 -34.1289 -34.1286 -34.1283 -34.1280
   -34.1273 -34.1268 -34.1131 -34.1130 -34.1108 -34.1107 -24.9073 -24.9073
   -24.7687 -24.7687 -24.7519 -24.7519   0.5507   0.6551   0.8207   0.9235
     7.1026   7.3715   8.2064   8.2852   9.0154   9.6100  10.3370  10.4105
    11.1664  11.4001  11.6542  11.8364  12.7376  12.9447

          k = 0.0833-0.4330 0.0652 (  9707 PWs)   bands (ev):

   -60.5744 -60.5744 -34.1612 -34.1612 -34.1605 -34.1604 -34.1576 -34.1575
   -34.1573 -34.1572 -34.1290 -34.1289 -34.1286 -34.1285 -34.1282 -34.1280
   -34.1272 -34.1268 -34.1134 -34.1133 -34.1111 -34.1110 -24.8808 -24.8808
   -24.7746 -24.7746 -24.7441 -24.7441   0.1939   0.3508   0.6386   0.8179
     7.5545   7.8259   8.5107   8.5636   9.0442   9.5737  10.3432  10.5415
    11.3801  11.4656  11.7108  11.7926  12.6488  12.7329

          k = 0.0833-0.2406 0.0652 (  9681 PWs)   bands (ev):

   -60.5789 -60.5789 -34.1609 -34.1609 -34.1609 -34.1608 -34.1595 -34.1595
   -34.1591 -34.1590 -34.1284 -34.1282 -34.1280 -34.1279 -34.1276 -34.1274
   -34.1270 -34.1266 -34.1143 -34.1141 -34.1122 -34.1120 -24.7964 -24.7964
   -24.7808 -24.7808 -24.7150 -24.7149  -0.8107  -0.5845   0.0846   0.4113
     7.5239   8.3622   9.4665   9.5468   9.8702  10.5014  10.9559  11.1279
    11.6331  11.6775  12.0806  12.3972  12.7636  12.7791

          k = 0.0833-0.0481 0.0652 (  9688 PWs)   bands (ev):

   -60.5823 -60.5822 -34.1612 -34.1611 -34.1610 -34.1609 -34.1608 -34.1607
   -34.1605 -34.1604 -34.1280 -34.1280 -34.1276 -34.1276 -34.1269 -34.1268
   -34.1266 -34.1264 -34.1150 -34.1148 -34.1130 -34.1127 -24.8123 -24.8123
   -24.7059 -24.7058 -24.6941 -24.6940  -1.3884  -1.1480  -0.2424   0.1478
     6.8275   7.7524  10.3080  10.8155  10.8463  11.2353  11.2619  11.6459
    12.0560  12.1225  12.2352  12.3979  13.3454  13.6414

          k = 0.2500 0.4330 0.0652 (  9731 PWs)   bands (ev):

   -60.5732 -60.5732 -34.1604 -34.1603 -34.1596 -34.1595 -34.1578 -34.1577
   -34.1577 -34.1577 -34.1295 -34.1290 -34.1288 -34.1287 -34.1278 -34.1277
   -34.1276 -34.1271 -34.1132 -34.1131 -34.1109 -34.1108 -24.8740 -24.8740
   -24.7859 -24.7858 -24.7687 -24.7687   0.5108   0.6285   0.8177   0.9446
     7.8589   7.9329   8.4064   8.5637   9.1949   9.2638   9.8297  10.1121
    10.3585  10.4842  11.3764  11.6803  12.8891  13.0227

          k = 0.2500 0.6255 0.0652 (  9736 PWs)   bands (ev):

   -60.5723 -60.5723 -34.1600 -34.1599 -34.1591 -34.1590 -34.1577 -34.1577
   -34.1577 -34.1577 -34.1298 -34.1292 -34.1288 -34.1287 -34.1278 -34.1278
   -34.1277 -34.1273 -34.1130 -34.1129 -34.1107 -34.1106 -24.8769 -24.8769
   -24.8083 -24.8083 -24.7645 -24.7644   0.7939   0.8566   0.9593   1.0211
     7.7784   7.9065   8.0914   8.2494   9.2047   9.3944   9.5827   9.7928
    10.2154  10.3452  11.1424  11.4314  13.1256  13.3395

          k = 0.2500-0.3368 0.0652 (  9717 PWs)   bands (ev):

   -60.5747 -60.5747 -34.1608 -34.1607 -34.1601 -34.1601 -34.1580 -34.1580
   -34.1578 -34.1578 -34.1291 -34.1287 -34.1286 -34.1285 -34.1279 -34.1278
   -34.1273 -34.1269 -34.1135 -34.1133 -34.1112 -34.1111 -24.8601 -24.8601
   -24.7762 -24.7761 -24.7559 -24.7559   0.0977   0.2667   0.5920   0.7926
     7.9644   8.1773   8.7082   8.8109   9.1352   9.3955   9.9583  10.4267
    10.9437  11.0692  11.7380  11.8974  12.7362  12.7958

          k = 0.2500-0.1443 0.0652 (  9692 PWs)   bands (ev):

   -60.5781 -60.5780 -34.1611 -34.1611 -34.1609 -34.1608 -34.1591 -34.1590
   -34.1586 -34.1586 -34.1283 -34.1283 -34.1282 -34.1279 -34.1278 -34.1277
   -34.1270 -34.1266 -34.1142 -34.1140 -34.1120 -34.1118 -24.8042 -24.8041
   -24.7921 -24.7921 -24.7170 -24.7170  -0.6373  -0.4183   0.1815   0.4865
     7.6860   8.4287   9.0979   9.2203   9.6945  10.0856  11.1645  11.2548
    11.5465  11.8547  11.9457  12.0956  12.5097  12.5843

          k = 0.4167 0.7217 0.0652 (  9716 PWs)   bands (ev):

   -60.5726 -60.5726 -34.1607 -34.1606 -34.1598 -34.1597 -34.1573 -34.1572
   -34.1572 -34.1571 -34.1295 -34.1291 -34.1289 -34.1288 -34.1280 -34.1278
   -34.1275 -34.1271 -34.1130 -34.1130 -34.1107 -34.1106 -24.8972 -24.8971
   -24.7784 -24.7784 -24.7660 -24.7660   0.7085   0.7862   0.9083   0.9818
     7.3314   7.5690   8.1687   8.2085   9.0769   9.5327  10.0992  10.2399
    10.6036  10.9084  11.1284  11.4859  12.9503  13.1970

          k = 0.4167-0.2406 0.0652 (  9721 PWs)   bands (ev):

   -60.5738 -60.5738 -34.1615 -34.1614 -34.1606 -34.1605 -34.1571 -34.1571
   -34.1568 -34.1568 -34.1291 -34.1289 -34.1287 -34.1285 -34.1283 -34.1282
   -34.1272 -34.1267 -34.1133 -34.1132 -34.1110 -34.1109 -24.9007 -24.9007
   -24.7719 -24.7718 -24.7399 -24.7399   0.3607   0.4946   0.7217   0.8645
     7.1970   7.4746   8.3052   8.4110   9.0008   9.6113  10.5215  10.6249
    11.1306  11.4458  12.2150  12.3529  12.4457  12.5783

     highest occupied level (ev):    13.6414

!    total energy              =   -1273.75180206 Ry
     estimated scf accuracy    <          5.2E-11 Ry

     convergence has been achieved in  10 iterations

     Forces acting on atoms (cartesian axes, Ry/au):

     atom    1 type  1   force =     0.00000000   -0.00000000    0.00000000
     atom    2 type  1   force =     0.00000000    0.00000000    0.00000000
     atom    3 type  2   force =    -0.00000000   -0.00000000    0.00580044
     atom    4 type  2   force =     0.00000000   -0.00000000   -0.00580044
     atom    5 type  2   force =    -0.00000000    0.00000000    0.00580044
     atom    6 type  2   force =     0.00000000    0.00000000   -0.00580044

     Total force =     0.011601     Total SCF correction =     0.000048


     Computing stress (Cartesian axis) and pressure

          total   stress  (Ry/bohr**3)                   (kbar)     P=       12.93
   0.00012658  -0.00000000   0.00000000           18.62       -0.00        0.00
  -0.00000000   0.00012658   0.00000000           -0.00       18.62        0.00
  -0.00000000   0.00000000   0.00001045           -0.00        0.00        1.54


     Entering FIRE :       iteration =     5

     FIRE Parameters: P = -.00000368, dt = 10.00, alpha = 0.200 nsteppos =   0 at step  5


ATOMIC_POSITIONS (crystal)
W                0.3333333430        0.6666666870        0.7500000000
W                0.6666666270        0.3333333130        0.2500000000
Se               0.3333333430        0.6666666870        0.1174831055
Se               0.6666666270        0.3333333130        0.8825169015
Se               0.6666666270        0.3333333130        0.6174830985
Se               0.3333333430        0.6666666870        0.3825169015



     Writing config-only to output data dir ./WSe.save/ :
     XML data file
     NEW-OLD atomic charge density approx. for the potential

     total cpu time spent up to now is       27.1 secs

     Self-consistent Calculation

     iteration #  1     ecut=    80.00 Ry     beta= 0.50
     Davidson diagonalization with overlap
     ethr =  1.00E-06,  avg # of iterations =  5.0

     Threshold (ethr) on eigenvalues was too large:
     Diagonalizing with lowered threshold

     Davidson diagonalization with overlap
     ethr =  1.58E-08,  avg # of iterations =  8.0

     total cpu time spent up to now is       28.1 secs

     total energy              =   -1273.75195368 Ry
     estimated scf accuracy    <       0.00002373 Ry

     iteration #  2     ecut=    80.00 Ry     beta= 0.50
     Davidson diagonalization with overlap
     ethr =  2.58E-08,  avg # of iterations =  5.8

     total cpu time spent up to now is       28.5 secs

     total energy              =   -1273.75195288 Ry
     estimated scf accuracy    <       0.00005229 Ry

     iteration #  3     ecut=    80.00 Ry     beta= 0.50
     Davidson diagonalization with overlap
     ethr =  2.58E-08,  avg # of iterations =  5.2

     total cpu time spent up to now is       28.8 secs

     total energy              =   -1273.75196140 Ry
     estimated scf accuracy    <       0.00000095 Ry

     iteration #  4     ecut=    80.00 Ry     beta= 0.50
     Davidson diagonalization with overlap
     ethr =  1.04E-09,  avg # of iterations =  4.9

     total cpu time spent up to now is       29.1 secs

     total energy              =   -1273.75196150 Ry
     estimated scf accuracy    <       0.00000085 Ry

     iteration #  5     ecut=    80.00 Ry     beta= 0.50
     Davidson diagonalization with overlap
     ethr =  9.27E-10,  avg # of iterations =  3.5

     total cpu time spent up to now is       29.4 secs

     total energy              =   -1273.75196160 Ry
     estimated scf accuracy    <       0.00000003 Ry

     iteration #  6     ecut=    80.00 Ry     beta= 0.50
     Davidson diagonalization with overlap
     ethr =  3.65E-11,  avg # of iterations =  6.0

     total cpu time spent up to now is       29.8 secs

     total energy              =   -1273.75196162 Ry
     estimated scf accuracy    <       0.00000010 Ry

     iteration #  7     ecut=    80.00 Ry     beta= 0.50
     Davidson diagonalization with overlap
     ethr =  3.65E-11,  avg # of iterations =  4.0

     total cpu time spent up to now is       30.1 secs

     total energy              =   -1273.75196162 Ry
     estimated scf accuracy    <       0.00000001 Ry

     iteration #  8     ecut=    80.00 Ry     beta= 0.50
     Davidson diagonalization with overlap
     ethr =  1.38E-11,  avg # of iterations =  5.5

     total cpu time spent up to now is       30.5 secs

     total energy              =   -1273.75196162 Ry
     estimated scf accuracy    <          9.4E-09 Ry

     iteration #  9     ecut=    80.00 Ry     beta= 0.50
     Davidson diagonalization with overlap
     ethr =  1.02E-11,  avg # of iterations =  2.2

     total cpu time spent up to now is       30.7 secs

     total energy              =   -1273.75196163 Ry
     estimated scf accuracy    <          2.1E-09 Ry

     iteration # 10     ecut=    80.00 Ry     beta= 0.50
     Davidson diagonalization with overlap
     ethr =  2.23E-12,  avg # of iterations =  3.9

     total cpu time spent up to now is       31.2 secs

     total energy              =   -1273.75196163 Ry
     estimated scf accuracy    <          5.0E-10 Ry

     iteration # 11     ecut=    80.00 Ry     beta= 0.50
     Davidson diagonalization with overlap
     ethr =  5.45E-13,  avg # of iterations =  5.5

     total cpu time spent up to now is       31.5 secs

     total energy              =   -1273.75196163 Ry
     estimated scf accuracy    <          1.3E-10 Ry

     iteration # 12     ecut=    80.00 Ry     beta= 0.50
     Davidson diagonalization with overlap
     ethr =  1.37E-13,  avg # of iterations =  2.7

     total cpu time spent up to now is       31.8 secs

     End of self-consistent calculation

          k = 0.0833 0.1443 0.0652 (  9677 PWs)   bands (ev):

   -60.5772 -60.5772 -34.1640 -34.1639 -34.1637 -34.1637 -34.1633 -34.1633
   -34.1628 -34.1628 -34.1301 -34.1300 -34.1297 -34.1297 -34.1292 -34.1289
   -34.1288 -34.1285 -34.1164 -34.1161 -34.1142 -34.1140 -24.8047 -24.8047
   -24.7335 -24.7335 -24.7012 -24.7011  -1.2010  -0.9698  -0.1279   0.2347
     7.0760   7.9729  10.1394  10.2581  10.2954  11.1891  11.3744  11.3995
    11.5897  11.6797  12.2083  12.4868  13.1607  13.2932

          k = 0.0833 0.3368 0.0652 (  9698 PWs)   bands (ev):

   -60.5727 -60.5727 -34.1640 -34.1639 -34.1635 -34.1635 -34.1614 -34.1613
   -34.1610 -34.1610 -34.1307 -34.1304 -34.1304 -34.1302 -34.1300 -34.1299
   -34.1291 -34.1287 -34.1154 -34.1153 -34.1131 -34.1130 -24.8349 -24.8349
   -24.7827 -24.7827 -24.7304 -24.7303  -0.3290  -0.1312   0.3565   0.6144
     7.9173   8.4397   8.6684   8.9038   9.5532   9.6235  10.4907  10.7463
    11.6333  11.6707  11.8036  12.0486  12.5530  12.5812

          k = 0.0833 0.5292 0.0652 (  9715 PWs)   bands (ev):

   -60.5693 -60.5693 -34.1642 -34.1642 -34.1632 -34.1632 -34.1599 -34.1599
   -34.1597 -34.1596 -34.1312 -34.1312 -34.1309 -34.1307 -34.1303 -34.1300
   -34.1293 -34.1288 -34.1147 -34.1146 -34.1123 -34.1122 -24.9078 -24.9078
   -24.7666 -24.7666 -24.7517 -24.7517   0.5366   0.6398   0.8107   0.9126
     7.0908   7.3546   8.2026   8.2805   9.0052   9.5920  10.3197  10.3913
    11.1769  11.4052  11.6475  11.8249  12.7319  12.9353

          k = 0.0833-0.4330 0.0652 (  9707 PWs)   bands (ev):

   -60.5706 -60.5705 -34.1641 -34.1641 -34.1633 -34.1633 -34.1605 -34.1604
   -34.1602 -34.1601 -34.1310 -34.1309 -34.1306 -34.1305 -34.1302 -34.1300
   -34.1292 -34.1287 -34.1150 -34.1149 -34.1126 -34.1125 -24.8812 -24.8812
   -24.7725 -24.7725 -24.7439 -24.7439   0.1807   0.3351   0.6305   0.8074
     7.5398   7.8061   8.5074   8.5601   9.0334   9.5563  10.3288  10.5220
    11.3849  11.4635  11.7028  11.7874  12.6395  12.7216

          k = 0.0833-0.2406 0.0652 (  9681 PWs)   bands (ev):

   -60.5751 -60.5751 -34.1639 -34.1638 -34.1638 -34.1637 -34.1624 -34.1624
   -34.1620 -34.1619 -34.1304 -34.1302 -34.1300 -34.1299 -34.1296 -34.1294
   -34.1289 -34.1286 -34.1159 -34.1157 -34.1137 -34.1135 -24.7945 -24.7945
   -24.7808 -24.7808 -24.7147 -24.7147  -0.8240  -0.6028   0.0829   0.4038
     7.5197   8.3514   9.4441   9.5230   9.8640  10.4848  10.9389  11.1088
    11.6082  11.6518  12.0766  12.4029  12.7663  12.7804

          k = 0.0833-0.0481 0.0652 (  9688 PWs)   bands (ev):

   -60.5784 -60.5784 -34.1641 -34.1641 -34.1639 -34.1638 -34.1637 -34.1636
   -34.1634 -34.1633 -34.1300 -34.1300 -34.1296 -34.1296 -34.1289 -34.1288
   -34.1286 -34.1284 -34.1166 -34.1164 -34.1145 -34.1142 -24.8106 -24.8105
   -24.7056 -24.7056 -24.6937 -24.6937  -1.4026  -1.1679  -0.2409   0.1423
     6.8249   7.7407  10.3185  10.7868  10.8168  11.2061  11.2320  11.6331
    12.0344  12.0992  12.2175  12.3988  13.3508  13.6506

          k = 0.2500 0.4330 0.0652 (  9731 PWs)   bands (ev):

   -60.5693 -60.5693 -34.1633 -34.1632 -34.1624 -34.1624 -34.1607 -34.1606
   -34.1606 -34.1606 -34.1315 -34.1311 -34.1308 -34.1307 -34.1298 -34.1297
   -34.1296 -34.1291 -34.1148 -34.1147 -34.1124 -34.1123 -24.8745 -24.8744
   -24.7858 -24.7858 -24.7666 -24.7666   0.4971   0.6136   0.8078   0.9337
     7.8427   7.9180   8.3928   8.5470   9.1884   9.2596   9.8220  10.1018
    10.3481  10.4679  11.3868  11.6835  12.8832  13.0128

          k = 0.2500 0.6255 0.0652 (  9736 PWs)   bands (ev):

   -60.5685 -60.5684 -34.1629 -34.1629 -34.1620 -34.1619 -34.1606 -34.1606
   -34.1606 -34.1606 -34.1318 -34.1313 -34.1308 -34.1307 -34.1298 -34.1297
   -34.1297 -34.1293 -34.1146 -34.1145 -34.1122 -34.1121 -24.8773 -24.8773
   -24.8083 -24.8083 -24.7623 -24.7623   0.7791   0.8412   0.9489   1.0102
     7.7670   7.8929   8.0762   8.2312   9.1952   9.3853   9.5783   9.7865
    10.2048  10.3372  11.1489  11.4345  13.1215  13.3315

          k = 0.2500-0.3368 0.0652 (  9717 PWs)   bands (ev):

   -60.5709 -60.5709 -34.1637 -34.1637 -34.1630 -34.1630 -34.1609 -34.1609
   -34.1607 -34.1606 -34.1312 -34.1307 -34.1306 -34.1305 -34.1299 -34.1298
   -34.1293 -34.1289 -34.1151 -34.1149 -34.1127 -34.1126 -24.8605 -24.8605
   -24.7741 -24.7741 -24.7557 -24.7557   0.0846   0.2508   0.5846   0.7824
     7.9474   8.1574   8.7045   8.8049   9.1205   9.3801   9.9483  10.4116
    10.9324  11.0550  11.7471  11.9001  12.7288  12.7849

          k = 0.2500-0.1443 0.0652 (  9692 PWs)   bands (ev):

   -60.5742 -60.5742 -34.1640 -34.1640 -34.1638 -34.1637 -34.1620 -34.1619
   -34.1615 -34.1614 -34.1304 -34.1303 -34.1302 -34.1299 -34.1298 -34.1297
   -34.1290 -34.1286 -34.1158 -34.1156 -34.1135 -34.1133 -24.8043 -24.8043
   -24.7902 -24.7902 -24.7168 -24.7168  -0.6505  -0.4361   0.1787   0.4784
     7.6803   8.4170   9.0787   9.2024   9.6822  10.0710  11.1430  11.2309
    11.5523  11.8299  11.9182  12.1037  12.5113  12.5848

          k = 0.4167 0.7217 0.0652 (  9716 PWs)   bands (ev):

   -60.5688 -60.5688 -34.1636 -34.1636 -34.1626 -34.1626 -34.1602 -34.1601
   -34.1600 -34.1600 -34.1315 -34.1312 -34.1309 -34.1308 -34.1299 -34.1298
   -34.1295 -34.1291 -34.1146 -34.1146 -34.1122 -34.1121 -24.8977 -24.8976
   -24.7784 -24.7784 -24.7639 -24.7639   0.6939   0.7708   0.8980   0.9709
     7.3203   7.5536   8.1584   8.1984   9.0663   9.5179  10.0870  10.2318
    10.5973  10.8950  11.1373  11.4896  12.9460  13.1888

          k = 0.4167-0.2406 0.0652 (  9721 PWs)   bands (ev):

   -60.5700 -60.5700 -34.1644 -34.1643 -34.1635 -34.1634 -34.1600 -34.1600
   -34.1597 -34.1597 -34.1311 -34.1309 -34.1307 -34.1305 -34.1303 -34.1303
   -34.1292 -34.1287 -34.1149 -34.1147 -34.1125 -34.1124 -24.9012 -24.9012
   -24.7698 -24.7697 -24.7397 -24.7397   0.3471   0.4791   0.7125   0.8537
     7.1841   7.4562   8.3029   8.4083   8.9915   9.5934  10.4997  10.6004
    11.1421  11.4543  12.2132  12.3387  12.4418  12.5580

     highest occupied level (ev):    13.6506

!    total energy              =   -1273.75196163 Ry
     estimated scf accuracy    <          2.5E-11 Ry

     convergence has been achieved in  12 iterations

     Forces acting on atoms (cartesian axes, Ry/au):

     atom    1 type  1   force =     0.00000000   -0.00000000    0.00000000
     atom    2 type  1   force =    -0.00000000    0.00000000    0.00000000
     atom    3 type  2   force =     0.00000000    0.00000000    0.00177665
     atom    4 type  2   force =    -0.00000000   -0.00000000   -0.00177665
     atom    5 type  2   force =    -0.00000000    0.00000000    0.00177665
     atom    6 type  2   force =     0.00000000    0.00000000   -0.00177665

     Total force =     0.003553     Total SCF correction =     0.000030


     Computing stress (Cartesian axis) and pressure

          total   stress  (Ry/bohr**3)                   (kbar)     P=       17.53
   0.00014709  -0.00000000   0.00000000           21.64       -0.00        0.00
  -0.00000000   0.00014709  -0.00000000           -0.00       21.64       -0.00
   0.00000000  -0.00000000   0.00006334            0.00       -0.00        9.32


     Entering FIRE :       iteration =     6

     FIRE Parameters: P = 0.00000007, dt = 10.00, alpha = 0.200 nsteppos =   1 at step  6


ATOMIC_POSITIONS (crystal)
W                0.3333333430        0.6666666870        0.7500000000
W                0.6666666270        0.3333333130        0.2500000000
Se               0.3333333430        0.6666666870        0.1175179078
Se               0.6666666270        0.3333333130        0.8824820992
Se               0.6666666270        0.3333333130        0.6175179008
Se               0.3333333430        0.6666666870        0.3824820992



     Writing config-only to output data dir ./WSe.save/ :
     XML data file
     NEW-OLD atomic charge density approx. for the potential

     total cpu time spent up to now is       32.3 secs

     Self-consistent Calculation

     iteration #  1     ecut=    80.00 Ry     beta= 0.50
     Davidson diagonalization with overlap
     ethr =  1.00E-06,  avg # of iterations =  3.0

     Threshold (ethr) on eigenvalues was too large:
     Diagonalizing with lowered threshold

     Davidson diagonalization with overlap
     ethr =  1.60E-09,  avg # of iterations =  4.6

     total cpu time spent up to now is       33.0 secs

     total energy              =   -1273.75196698 Ry
     estimated scf accuracy    <       0.00000008 Ry

     iteration #  2     ecut=    80.00 Ry     beta= 0.50
     Davidson diagonalization with overlap
     ethr =  8.87E-11,  avg # of iterations =  5.6

     total cpu time spent up to now is       33.3 secs

     total energy              =   -1273.75196700 Ry
     estimated scf accuracy    <          6.2E-09 Ry

     iteration #  3     ecut=    80.00 Ry     beta= 0.50
     Davidson diagonalization with overlap
     ethr =  6.70E-12,  avg # of iterations =  4.7

     total cpu time spent up to now is       33.7 secs

     total energy              =   -1273.75196700 Ry
     estimated scf accuracy    <          2.6E-09 Ry

     iteration #  4     ecut=    80.00 Ry     beta= 0.50
     Davidson diagonalization with overlap
     ethr =  2.86E-12,  avg # of iterations =  5.4

     total cpu time spent up to now is       34.0 secs

     total energy              =   -1273.75196700 Ry
     estimated scf accuracy    <          2.3E-09 Ry

     iteration #  5     ecut=    80.00 Ry     beta= 0.50
     Davidson diagonalization with overlap
     ethr =  2.52E-12,  avg # of iterations =  4.2

     total cpu time spent up to now is       34.3 secs

     End of self-consistent calculation

          k = 0.0833 0.1443 0.0652 (  9677 PWs)   bands (ev):

   -60.5769 -60.5769 -34.1642 -34.1642 -34.1639 -34.1639 -34.1636 -34.1635
   -34.1631 -34.1630 -34.1303 -34.1302 -34.1299 -34.1299 -34.1293 -34.1291
   -34.1289 -34.1286 -34.1165 -34.1162 -34.1143 -34.1140 -24.8046 -24.8046
   -24.7335 -24.7335 -24.7012 -24.7012  -1.2021  -0.9713  -0.1279   0.2342
     7.0757   7.9720  10.1397  10.2559  10.2932  11.1878  11.3722  11.3972
    11.5881  11.6780  12.2074  12.4872  13.1612  13.2938

          k = 0.0833 0.3368 0.0652 (  9698 PWs)   bands (ev):

   -60.5724 -60.5724 -34.1642 -34.1642 -34.1638 -34.1637 -34.1616 -34.1616
[...]
    11.6312  11.6687  11.8027  12.0495  12.5513  12.5800

          k = 0.0833 0.5292 0.0652 (  9715 PWs)   bands (ev):

   -60.5687 -60.5687 -34.1647 -34.1647 -34.1637 -34.1637 -34.1604 -34.1604
   -34.1602 -34.1601 -34.1315 -34.1315 -34.1312 -34.1310 -34.1306 -34.1304
   -34.1296 -34.1292 -34.1150 -34.1149 -34.1126 -34.1125 -24.9079 -24.9079
   -24.7662 -24.7662 -24.7517 -24.7517   0.5341   0.6371   0.8090   0.9107
     7.0888   7.3517   8.2020   8.2797   9.0034   9.5889  10.3166  10.3879
    11.1788  11.4060  11.6464  11.8229  12.7308  12.9336

          k = 0.0833-0.4330 0.0652 (  9707 PWs)   bands (ev):

   -60.5699 -60.5699 -34.1647 -34.1646 -34.1639 -34.1638 -34.1610 -34.1609
   -34.1607 -34.1606 -34.1313 -34.1312 -34.1310 -34.1309 -34.1305 -34.1303
   -34.1296 -34.1291 -34.1153 -34.1151 -34.1129 -34.1128 -24.8813 -24.8813
   -24.7722 -24.7721 -24.7439 -24.7439   0.1783   0.3323   0.6291   0.8056
     7.5373   7.8027   8.5068   8.5595   9.0316   9.5533  10.3263  10.5186
    11.3858  11.4630  11.7014  11.7866  12.6379  12.7196

          k = 0.0833-0.2406 0.0652 (  9681 PWs)   bands (ev):

   -60.5745 -60.5744 -34.1644 -34.1643 -34.1643 -34.1642 -34.1629 -34.1629
   -34.1625 -34.1624 -34.1307 -34.1305 -34.1303 -34.1303 -34.1300 -34.1298
   -34.1293 -34.1289 -34.1162 -34.1160 -34.1140 -34.1138 -24.7942 -24.7942
   -24.7808 -24.7808 -24.7146 -24.7146  -0.8263  -0.6061   0.0826   0.4025
     7.5190   8.3495   9.4402   9.5189   9.8629  10.4819  10.9359  11.1055
    11.6039  11.6474  12.0760  12.4039  12.7667  12.7806

          k = 0.0833-0.0481 0.0652 (  9688 PWs)   bands (ev):

   -60.5778 -60.5778 -34.1647 -34.1646 -34.1644 -34.1643 -34.1642 -34.1641
   -34.1639 -34.1638 -34.1303 -34.1303 -34.1300 -34.1300 -34.1292 -34.1291
   -34.1289 -34.1288 -34.1169 -34.1166 -34.1147 -34.1145 -24.8103 -24.8102
   -24.7055 -24.7055 -24.6937 -24.6937  -1.4051  -1.1714  -0.2407   0.1413
     6.8245   7.7386  10.3203  10.7818  10.8116  11.2010  11.2268  11.6308
    12.0307  12.0952  12.2144  12.3990  13.3517  13.6522

          k = 0.2500 0.4330 0.0652 (  9731 PWs)   bands (ev):

   -60.5687 -60.5687 -34.1638 -34.1637 -34.1630 -34.1629 -34.1612 -34.1612
   -34.1611 -34.1611 -34.1319 -34.1314 -34.1311 -34.1310 -34.1302 -34.1300
   -34.1299 -34.1295 -34.1150 -34.1150 -34.1126 -34.1125 -24.8745 -24.8745
   -24.7858 -24.7858 -24.7663 -24.7662   0.4947   0.6110   0.8061   0.9318
     7.8399   7.9153   8.3904   8.5441   9.1872   9.2589   9.8207  10.1000
    10.3463  10.4651  11.3886  11.6841  12.8822  13.0111

          k = 0.2500 0.6255 0.0652 (  9736 PWs)   bands (ev):

   -60.5678 -60.5678 -34.1634 -34.1634 -34.1625 -34.1624 -34.1611 -34.1611
   -34.1611 -34.1611 -34.1321 -34.1316 -34.1312 -34.1311 -34.1302 -34.1301
   -34.1300 -34.1297 -34.1149 -34.1148 -34.1124 -34.1124 -24.8774 -24.8774
   -24.8084 -24.8083 -24.7619 -24.7619   0.7765   0.8384   0.9471   1.0084
     7.7650   7.8905   8.0735   8.2280   9.1936   9.3837   9.5776   9.7854
    10.2029  10.3358  11.1501  11.4350  13.1208  13.3301

          k = 0.2500-0.3368 0.0652 (  9717 PWs)   bands (ev):

   -60.5702 -60.5702 -34.1642 -34.1642 -34.1635 -34.1635 -34.1614 -34.1614
   -34.1612 -34.1612 -34.1315 -34.1311 -34.1310 -34.1308 -34.1303 -34.1301
   -34.1297 -34.1292 -34.1153 -34.1152 -34.1130 -34.1129 -24.8605 -24.8605
   -24.7738 -24.7737 -24.7557 -24.7557   0.0823   0.2480   0.5834   0.7806
     7.9444   8.1540   8.7038   8.8038   9.1179   9.3775   9.9466  10.4090
    10.9304  11.0526  11.7487  11.9006  12.7274  12.7830

          k = 0.2500-0.1443 0.0652 (  9692 PWs)   bands (ev):

   -60.5736 -60.5735 -34.1645 -34.1645 -34.1643 -34.1642 -34.1625 -34.1624
   -34.1620 -34.1620 -34.1307 -34.1307 -34.1305 -34.1303 -34.1302 -34.1300
   -34.1293 -34.1289 -34.1160 -34.1158 -34.1137 -34.1136 -24.8043 -24.8043
   -24.7899 -24.7899 -24.7167 -24.7167  -0.6528  -0.4393   0.1783   0.4770
     7.6792   8.4150   9.0754   9.1993   9.6800  10.0685  11.1392  11.2268
    11.5533  11.8255  11.9134  12.1051  12.5115  12.5849

          k = 0.4167 0.7217 0.0652 (  9716 PWs)   bands (ev):

   -60.5681 -60.5681 -34.1641 -34.1641 -34.1631 -34.1631 -34.1607 -34.1606
   -34.1606 -34.1605 -34.1319 -34.1315 -34.1313 -34.1312 -34.1303 -34.1302
   -34.1299 -34.1294 -34.1149 -34.1148 -34.1125 -34.1124 -24.8978 -24.8977
   -24.7784 -24.7784 -24.7635 -24.7635   0.6914   0.7681   0.8963   0.9690
     7.3184   7.5509   8.1566   8.1966   9.0645   9.5154  10.0849  10.2303
    10.5962  10.8926  11.1389  11.4902  12.9453  13.1874

          k = 0.4167-0.2406 0.0652 (  9721 PWs)   bands (ev):

   -60.5693 -60.5693 -34.1649 -34.1648 -34.1640 -34.1639 -34.1606 -34.1605
   -34.1602 -34.1602 -34.1315 -34.1312 -34.1311 -34.1309 -34.1307 -34.1306
   -34.1295 -34.1290 -34.1151 -34.1150 -34.1128 -34.1126 -24.9013 -24.9013
   -24.7694 -24.7694 -24.7397 -24.7397   0.3447   0.4764   0.7110   0.8518
     7.1818   7.4531   8.3025   8.4078   8.9899   9.5903  10.4959  10.5962
    11.1441  11.4558  12.2129  12.3363  12.4411  12.5545

     highest occupied level (ev):    13.6522

!    total energy              =   -1273.75197202 Ry
     estimated scf accuracy    <          1.5E-11 Ry

     convergence has been achieved in   7 iterations

     Forces acting on atoms (cartesian axes, Ry/au):

     atom    1 type  1   force =     0.00000000    0.00000000    0.00000000
     atom    2 type  1   force =    -0.00000000   -0.00000000    0.00000000
     atom    3 type  2   force =     0.00000000    0.00000000    0.00107738
     atom    4 type  2   force =    -0.00000000   -0.00000000   -0.00107738
     atom    5 type  2   force =     0.00000000   -0.00000000    0.00107738
     atom    6 type  2   force =     0.00000000    0.00000000   -0.00107738

     Total force =     0.002155     Total SCF correction =     0.000028


     Computing stress (Cartesian axis) and pressure

          total   stress  (Ry/bohr**3)                   (kbar)     P=       18.34
   0.00015070  -0.00000000   0.00000000           22.17       -0.00        0.00
  -0.00000000   0.00015070   0.00000000           -0.00       22.17        0.00
  -0.00000000   0.00000000   0.00007259           -0.00        0.00       10.68


     Entering FIRE :       iteration =     8

     FIRE Parameters: P = 0.00000007, dt = 10.00, alpha = 0.200 nsteppos =   3 at step  8


ATOMIC_POSITIONS (crystal)
W                0.3333333430        0.6666666870        0.7500000000
W                0.6666666270        0.3333333130        0.2500000000
Se               0.3333333430        0.6666666870        0.1176057481
Se               0.6666666270        0.3333333130        0.8823942589
Se               0.6666666270        0.3333333130        0.6176057411
Se               0.3333333430        0.6666666870        0.3823942589



     Writing config-only to output data dir ./WSe.save/ :
     XML data file
     NEW-OLD atomic charge density approx. for the potential

     total cpu time spent up to now is       38.0 secs

     Self-consistent Calculation

     iteration #  1     ecut=    80.00 Ry     beta= 0.50
     Davidson diagonalization with overlap
     ethr =  1.00E-06,  avg # of iterations =  3.0

     Threshold (ethr) on eigenvalues was too large:
     Diagonalizing with lowered threshold

     Davidson diagonalization with overlap
     ethr =  2.31E-09,  avg # of iterations =  4.8

     total cpu time spent up to now is       38.6 secs

     total energy              =   -1273.75197580 Ry
     estimated scf accuracy    <       0.00000014 Ry

     iteration #  2     ecut=    80.00 Ry     beta= 0.50
     Davidson diagonalization with overlap
     ethr =  1.55E-10,  avg # of iterations =  5.3

     total cpu time spent up to now is       39.0 secs

     total energy              =   -1273.75197583 Ry
     estimated scf accuracy    <       0.00000002 Ry

     iteration #  3     ecut=    80.00 Ry     beta= 0.50
     Davidson diagonalization with overlap
     ethr =  2.20E-11,  avg # of iterations =  6.2

     total cpu time spent up to now is       39.4 secs

     total energy              =   -1273.75197583 Ry
     estimated scf accuracy    <       0.00000003 Ry

     iteration #  4     ecut=    80.00 Ry     beta= 0.50
     Davidson diagonalization with overlap
     ethr =  2.20E-11,  avg # of iterations =  4.8

     total cpu time spent up to now is       39.7 secs

     total energy              =   -1273.75197584 Ry
     estimated scf accuracy    <          1.0E-09 Ry

     iteration #  5     ecut=    80.00 Ry     beta= 0.50
     Davidson diagonalization with overlap
     ethr =  1.12E-12,  avg # of iterations =  5.0

     total cpu time spent up to now is       40.0 secs

     total energy              =   -1273.75197584 Ry
     estimated scf accuracy    <          7.1E-10 Ry

     iteration #  6     ecut=    80.00 Ry     beta= 0.50
     Davidson diagonalization with overlap
     ethr =  7.71E-13,  avg # of iterations =  5.6

     total cpu time spent up to now is       40.4 secs

     total energy              =   -1273.75197584 Ry
     estimated scf accuracy    <          5.3E-10 Ry

     iteration #  7     ecut=    80.00 Ry     beta= 0.50
     Davidson diagonalization with overlap
     ethr =  5.77E-13,  avg # of iterations =  2.9

     total cpu time spent up to now is       40.6 secs

     End of self-consistent calculation

          k = 0.0833 0.1443 0.0652 (  9677 PWs)   bands (ev):

   -60.5762 -60.5762 -34.1648 -34.1648 -34.1646 -34.1645 -34.1642 -34.1641
   -34.1637 -34.1636 -34.1307 -34.1306 -34.1303 -34.1303 -34.1298 -34.1295
   -34.1294 -34.1290 -34.1168 -34.1166 -34.1146 -34.1144 -24.8042 -24.8042
   -24.7335 -24.7334 -24.7011 -24.7011  -1.2049  -0.9752  -0.1278   0.2329
     7.0751   7.9697  10.1405  10.2506  10.2875  11.1845  11.3666  11.3915
    11.5839  11.6736  12.2052  12.4880  13.1624  13.2952

          k = 0.0833 0.3368 0.0652 (  9698 PWs)   bands (ev):

   -60.5716 -60.5716 -34.1648 -34.1648 -34.1644 -34.1643 -34.1622 -34.1622
   -34.1618 -34.1618 -34.1313 -34.1310 -34.1309 -34.1308 -34.1305 -34.1304
   -34.1297 -34.1292 -34.1159 -34.1157 -34.1136 -34.1134 -24.8350 -24.8350
   -24.7822 -24.7822 -24.7303 -24.7303  -0.3327  -0.1360   0.3552   0.6118
     7.9142   8.4343   8.6656   8.9016   9.5486   9.6197  10.4869  10.7409
    11.6299  11.6674  11.8021  12.0500  12.5502  12.5793

          k = 0.0833 0.5292 0.0652 (  9715 PWs)   bands (ev):

   -60.5683 -60.5683 -34.1650 -34.1650 -34.1640 -34.1640 -34.1607 -34.1607
   -34.1605 -34.1605 -34.1318 -34.1317 -34.1315 -34.1312 -34.1308 -34.1306
   -34.1298 -34.1294 -34.1152 -34.1151 -34.1128 -34.1127 -24.9080 -24.9080
   -24.7660 -24.7660 -24.7517 -24.7517   0.5326   0.6354   0.8079   0.9096
     7.0875   7.3499   8.2016   8.2792   9.0024   9.5870  10.3148  10.3859
    11.1799  11.4066  11.6457  11.8217  12.7302  12.9326

          k = 0.0833-0.4330 0.0652 (  9707 PWs)   bands (ev):

   -60.5695 -60.5695 -34.1650 -34.1649 -34.1642 -34.1641 -34.1613 -34.1612
   -34.1610 -34.1609 -34.1316 -34.1315 -34.1312 -34.1311 -34.1308 -34.1305
   -34.1298 -34.1293 -34.1154 -34.1153 -34.1131 -34.1129 -24.8814 -24.8814
   -24.7720 -24.7719 -24.7439 -24.7439   0.1769   0.3306   0.6283   0.8045
     7.5357   7.8006   8.5065   8.5591   9.0304   9.5515  10.3247  10.5165
    11.3863  11.4628  11.7005  11.7861  12.6369  12.7184

          k = 0.0833-0.2406 0.0652 (  9681 PWs)   bands (ev):

   -60.5741 -60.5740 -34.1647 -34.1646 -34.1646 -34.1645 -34.1633 -34.1632
   -34.1628 -34.1627 -34.1310 -34.1308 -34.1305 -34.1305 -34.1302 -34.1300
   -34.1295 -34.1291 -34.1164 -34.1162 -34.1141 -34.1139 -24.7940 -24.7940
   -24.7809 -24.7808 -24.7146 -24.7146  -0.8277  -0.6080   0.0824   0.4017
     7.5185   8.3484   9.4379   9.5164   9.8623  10.4802  10.9341  11.1034
    11.6012  11.6446  12.0756  12.4045  12.7670  12.7807

          k = 0.0833-0.0481 0.0652 (  9688 PWs)   bands (ev):

   -60.5774 -60.5774 -34.1650 -34.1649 -34.1647 -34.1646 -34.1645 -34.1644
   -34.1642 -34.1641 -34.1306 -34.1306 -34.1302 -34.1302 -34.1295 -34.1293
   -34.1291 -34.1290 -34.1171 -34.1168 -34.1149 -34.1147 -24.8101 -24.8101
   -24.7055 -24.7055 -24.6936 -24.6936  -1.4066  -1.1735  -0.2405   0.1408
     6.8242   7.7374  10.3215  10.7787  10.8085  11.1979  11.2236  11.6295
    12.0284  12.0927  12.2126  12.3992  13.3523  13.6532

          k = 0.2500 0.4330 0.0652 (  9731 PWs)   bands (ev):

   -60.5683 -60.5683 -34.1641 -34.1641 -34.1633 -34.1632 -34.1615 -34.1615
   -34.1614 -34.1614 -34.1321 -34.1316 -34.1313 -34.1312 -34.1304 -34.1303
   -34.1302 -34.1297 -34.1152 -34.1151 -34.1128 -34.1127 -24.8746 -24.8746
   -24.7858 -24.7858 -24.7660 -24.7660   0.4933   0.6093   0.8051   0.9306
     7.8381   7.9138   8.3890   8.5423   9.1865   9.2585   9.8199  10.0989
    10.3452  10.4634  11.3897  11.6844  12.8816  13.0100

          k = 0.2500 0.6255 0.0652 (  9736 PWs)   bands (ev):

   -60.5674 -60.5674 -34.1637 -34.1637 -34.1628 -34.1627 -34.1615 -34.1614
   -34.1614 -34.1614 -34.1324 -34.1319 -34.1314 -34.1313 -34.1304 -34.1303
   -34.1302 -34.1299 -34.1150 -34.1150 -34.1126 -34.1125 -24.8775 -24.8775
   -24.8084 -24.8084 -24.7617 -24.7617   0.7749   0.8368   0.9461   1.0072
     7.7637   7.8891   8.0719   8.2260   9.1926   9.3827   9.5772   9.7848
    10.2018  10.3350  11.1508  11.4354  13.1203  13.3292

          k = 0.2500-0.3368 0.0652 (  9717 PWs)   bands (ev):

   -60.5698 -60.5698 -34.1645 -34.1645 -34.1639 -34.1638 -34.1617 -34.1617
   -34.1615 -34.1615 -34.1317 -34.1313 -34.1312 -34.1310 -34.1305 -34.1303
   -34.1299 -34.1295 -34.1155 -34.1154 -34.1131 -34.1130 -24.8606 -24.8606
   -24.7735 -24.7735 -24.7557 -24.7557   0.0809   0.2463   0.5826   0.7795
     7.9426   8.1519   8.7034   8.8032   9.1163   9.3759   9.9456  10.4074
    10.9292  11.0511  11.7497  11.9009  12.7266  12.7818

          k = 0.2500-0.1443 0.0652 (  9692 PWs)   bands (ev):

   -60.5732 -60.5732 -34.1649 -34.1648 -34.1646 -34.1645 -34.1628 -34.1627
   -34.1623 -34.1623 -34.1309 -34.1309 -34.1307 -34.1305 -34.1304 -34.1302
   -34.1296 -34.1291 -34.1162 -34.1160 -34.1139 -34.1137 -24.8043 -24.8043
   -24.7897 -24.7897 -24.7167 -24.7167  -0.6542  -0.4412   0.1780   0.4761
     7.6786   8.4137   9.0733   9.1975   9.6787  10.0670  11.1369  11.2242
    11.5539  11.8229  11.9105  12.1060  12.5117  12.5850

          k = 0.4167 0.7217 0.0652 (  9716 PWs)   bands (ev):

   -60.5677 -60.5677 -34.1644 -34.1644 -34.1635 -34.1634 -34.1610 -34.1609
   -34.1609 -34.1608 -34.1321 -34.1317 -34.1315 -34.1314 -34.1305 -34.1304
   -34.1301 -34.1296 -34.1151 -34.1150 -34.1126 -34.1126 -24.8978 -24.8978
   -24.7784 -24.7784 -24.7633 -24.7633   0.6898   0.7664   0.8952   0.9679
     7.3172   7.5492   8.1555   8.1956   9.0634   9.5138  10.0836  10.2294
    10.5955  10.8912  11.1398  11.4907  12.9448  13.1865

          k = 0.4167-0.2406 0.0652 (  9721 PWs)   bands (ev):

   -60.5689 -60.5689 -34.1652 -34.1652 -34.1643 -34.1642 -34.1609 -34.1608
   -34.1605 -34.1605 -34.1317 -34.1315 -34.1313 -34.1311 -34.1309 -34.1308
   -34.1297 -34.1293 -34.1153 -34.1152 -34.1129 -34.1128 -24.9014 -24.9014
   -24.7692 -24.7692 -24.7397 -24.7397   0.3433   0.4747   0.7100   0.8507
     7.1804   7.4511   8.3023   8.4075   8.9889   9.5884  10.4936  10.5936
    11.1453  11.4568  12.2127  12.3347  12.4407  12.5524

     highest occupied level (ev):    13.6532

!    total energy              =   -1273.75197584 Ry
     estimated scf accuracy    <          3.4E-11 Ry

     convergence has been achieved in   7 iterations

     Forces acting on atoms (cartesian axes, Ry/au):

     atom    1 type  1   force =     0.00000000    0.00000000    0.00000000
     atom    2 type  1   force =    -0.00000000   -0.00000000    0.00000000
     atom    3 type  2   force =     0.00000000   -0.00000000    0.00064887
     atom    4 type  2   force =     0.00000000    0.00000000   -0.00064887
     atom    5 type  2   force =     0.00000000    0.00000000    0.00064887
     atom    6 type  2   force =    -0.00000000   -0.00000000   -0.00064887

     Total force =     0.001298     Total SCF correction =     0.000043


     Computing stress (Cartesian axis) and pressure

          total   stress  (Ry/bohr**3)                   (kbar)     P=       18.83
   0.00015289  -0.00000000   0.00000000           22.49       -0.00        0.00
  -0.00000000   0.00015289   0.00000000           -0.00       22.49        0.00
   0.00000000  -0.00000000   0.00007821            0.00       -0.00       11.51


     FIRE: convergence achieved in   8 steps

     End of FIRE minimization

     Final energy =   -1273.7519758378 Ry

Begin final coordinates
     new unit-cell volume =    803.31926 a.u.^3 (   119.03963 Ang^3 )
     density =      9.53474 g/cm^3

CELL_PARAMETERS (angstrom)
   3.297599493   0.000000000   0.000000000
  -1.648799745   2.855804934   0.000000000
   0.000000000   0.000000000  12.640525620

ATOMIC_POSITIONS (crystal)
W                0.3333333430        0.6666666870        0.7500000000
W                0.6666666270        0.3333333130        0.2500000000
Se               0.3333333430        0.6666666870        0.1176057481
Se               0.6666666270        0.3333333130        0.8823942589
Se               0.6666666270        0.3333333130        0.6176057411
Se               0.3333333430        0.6666666870        0.3823942589
End final coordinates



     Writing all to output data dir ./WSe.save/ :
     XML data file, charge density, pseudopotentials, collected wavefunctions
 
     init_run     :      0.38s CPU      0.69s WALL (       1 calls)
     electrons    :     27.74s CPU     35.16s WALL (       9 calls)
     update_pot   :      0.05s CPU      0.09s WALL (       8 calls)
     forces       :      0.81s CPU      0.99s WALL (       9 calls)
     force_london :      0.44s CPU      0.50s WALL (       9 calls)
     stress       :      1.46s CPU      1.69s WALL (       9 calls)
     stres_london :      0.49s CPU      0.54s WALL (       9 calls)

     Called by init_run:
     wfcinit      :      0.08s CPU      0.26s WALL (       1 calls)
     potinit      :      0.00s CPU      0.02s WALL (       1 calls)
     hinit0       :      0.27s CPU      0.36s WALL (       1 calls)

     Called by electrons:
     c_bands      :     24.27s CPU     29.34s WALL (      98 calls)
     sum_band     :      2.43s CPU      2.87s WALL (      98 calls)
     v_of_rho     :      0.44s CPU      0.56s WALL (      98 calls)
     mix_rho      :      0.16s CPU      0.20s WALL (      98 calls)
     energy_londo :      0.36s CPU      0.37s WALL (       9 calls)

     Called by c_bands:
     init_us_2    :      0.20s CPU      0.25s WALL (     645 calls)
     init_us_2:cp :      0.19s CPU      0.24s WALL (     645 calls)
     cegterg      :     22.87s CPU     26.53s WALL (     294 calls)

     Called by *egterg:
     cdiaghg      :      4.79s CPU      5.27s WALL (    1687 calls)
     h_psi        :     15.03s CPU     17.83s WALL (    1741 calls)
     g_psi        :      0.02s CPU      0.02s WALL (    1444 calls)

     Called by h_psi:
     h_psi:calbec :      2.07s CPU      2.53s WALL (    1741 calls)
     vloc_psi     :     11.91s CPU     14.11s WALL (    1741 calls)
     add_vuspsi   :      0.96s CPU      1.10s WALL (    1741 calls)

     General routines
     calbec       :      2.30s CPU      2.88s WALL (    1876 calls)
     fft          :      0.71s CPU      0.90s WALL (    1213 calls)
     ffts         :      0.04s CPU      0.05s WALL (      98 calls)
     fftw         :     13.21s CPU     15.63s WALL (   92538 calls)
 
     Parallel routines
     fft_scatt_xy :      1.10s CPU      1.29s WALL (   93849 calls)
     fft_scatt_yz :      9.86s CPU     11.73s WALL (   93849 calls)
 
     PWSCF        :     30.77s CPU     43.78s WALL

 
   This run was terminated on:  17: 7: 5   5Nov2024            

=------------------------------------------------------------------------------=
   JOB DONE.
=------------------------------------------------------------------------------=
