
     Program PWSCF v.7.3 starts on  5Nov2024 at 17:43: 5 

     This program is part of the open-source Quantum ESPRESSO suite
     for quantum simulation of materials; please cite
         "P. Giannozzi et al., J. Phys.:Condens. Matter 21 395502 (2009);
         "P. Giannozzi et al., J. Phys.:Condens. Matter 29 465901 (2017);
         "P. Giannozzi et al., J. Chem. Phys. 152 154105 (2020);
          URL http://www.quantum-espresso.org", 
     in publications or presentations arising from this work. More details at
     http://www.quantum-espresso.org/quote

     Parallel version (MPI & OpenMP), running on     256 processor cores
     Number of MPI processes:               256
     Threads/MPI process:                     1

     MPI processes distributed on     1 nodes
     470154 MiB available memory on the printing compute node when the environment starts
 
     Waiting for input...
     Reading input from standard input

     Current dimensions of program PWSCF are:
     Max number of different atomic species (ntypx) = 10
     Max number of k-points (npk) =  40000
     Max angular momentum in pseudopotentials (lmaxx) =  4
 
     K-points division:     npool     =       4
     R & G space division:  proc/nbgrp/npool/nimage =      64
     Subspace diagonalization in iterative solution of the eigenvalue problem:
     one sub-group per band group will be used
     scalapack distributed-memory algorithm (size of sub-group:  4*  4 procs)

 
     Parallelization info
     --------------------
     sticks:   dense  smooth     PW     G-vecs:    dense   smooth      PW
     Min         120     120     31                10920    10920    1445
     Max         121     121     32                10929    10929    1450
     Sum        7705    7705   1993               699065   699065   92625
 
     Using Pencil Decomposition
 


     bravais-lattice index     =            0
     lattice parameter (alat)  =      18.6947  a.u.
     unit-cell volume          =    7229.8735 (a.u.)^3
     number of atoms/cell      =           54
     number of atomic types    =            2
     number of electrons       =       828.00
     number of Kohn-Sham states=          414
     kinetic-energy cutoff     =      80.0000  Ry
     charge density cutoff     =     320.0000  Ry
     scf convergence threshold =      1.0E-10
     mixing beta               =       0.5000
     number of iterations used =            8  plain     mixing
     Exchange-correlation= PBE
                           (   1   4   3   4   0   0   0)

     celldm(1)=  18.694680  celldm(2)=   0.000000  celldm(3)=   0.000000
     celldm(4)=   0.000000  celldm(5)=   0.000000  celldm(6)=   0.000000

     crystal axes: (cart. coord. in units of alat)
               a(1) = (   1.000000   0.000000   0.000000 )  
               a(2) = (  -0.500000   0.866025   0.000000 )  
               a(3) = (   0.000000   0.000000   1.277750 )  

     reciprocal axes: (cart. coord. in units 2 pi/alat)
               b(1) = (  1.000000  0.577350  0.000000 )  
               b(2) = (  0.000000  1.154701  0.000000 )  
               b(3) = (  0.000000  0.000000  0.782626 )  


     PseudoPot. # 1 for W  read from file:
     /users/rkarkee/pbe_pseudo/W.upf
     MD5 check sum: cb94e439a9e4ea809831d6e90c63864e
     Pseudo is Norm-conserving + core correction, Zval = 14.0
     Generated using ONCVPSP code by D. R. Hamann
     Using radial grid of 1396 points,  8 beta functions with: 
                l(1) =   0
                l(2) =   0
                l(3) =   1
                l(4) =   1
                l(5) =   2
                l(6) =   2
                l(7) =   3
                l(8) =   3

     PseudoPot. # 2 for Se read from file:
     /users/rkarkee/pbe_pseudo/Se.upf
     MD5 check sum: 3cc46b3642295b3f4fdae63b742ce36d
     Pseudo is Norm-conserving + core correction, Zval = 16.0
     Generated using ONCVPSP code by D. R. Hamann
     Using radial grid of 1214 points,  6 beta functions with: 
                l(1) =   0
                l(2) =   0
                l(3) =   1
                l(4) =   1
                l(5) =   2
                l(6) =   2

     atomic species   valence    mass     pseudopotential
     W                14.00   183.84000     W ( 1.00)
     Se               16.00    78.96000     Se( 1.00)

     No symmetry found



   Cartesian axes

     site n.     atom                  positions (alat units)
         1        W      tau(   1) = (  -0.0000000   0.1924501   0.9583127  )
         2        W      tau(   2) = (   0.3333333   0.1924501   0.9583127  )
         3        W      tau(   3) = (   0.6666667   0.1924501   0.9583127  )
         4        W      tau(   4) = (  -0.1666667   0.4811252   0.9583127  )
         5        W      tau(   5) = (   0.1666667   0.4811252   0.9583127  )
         6        W      tau(   6) = (   0.5000000   0.4811252   0.9583127  )
         7        W      tau(   7) = (  -0.3333333   0.7698004   0.9583127  )
         8        W      tau(   8) = (   0.0000000   0.7698004   0.9583127  )
         9        W      tau(   9) = (   0.3333333   0.7698004   0.9583127  )
        10        W      tau(  10) = (   0.1666667   0.0962250   0.3194376  )
        11        W      tau(  11) = (   0.5000000   0.0962250   0.3194376  )
        12        W      tau(  12) = (   0.8333333   0.0962250   0.3194376  )
        13        W      tau(  13) = (  -0.0000000   0.3849002   0.3194376  )
        14        W      tau(  14) = (   0.3333333   0.3849002   0.3194376  )
        15        W      tau(  15) = (   0.6666667   0.3849002   0.3194376  )
        16        W      tau(  16) = (  -0.1666667   0.6735753   0.3194376  )
        17        W      tau(  17) = (   0.1666667   0.6735753   0.3194376  )
        18        W      tau(  18) = (   0.5000000   0.6735753   0.3194376  )
        19        Se     tau(  19) = (  -0.0006593   0.1924501   0.1494283  )
        20        Se     tau(  20) = (   0.3333333   0.1924501   0.1502708  )
        21        Se     tau(  21) = (   0.6666667   0.1924501   0.1502708  )
        22        Se     tau(  22) = (  -0.1666667   0.4811252   0.1502708  )
        23        Se     tau(  23) = (   0.1666667   0.4811252   0.1502708  )
        24        Se     tau(  24) = (   0.5000000   0.4811252   0.1502708  )
        25        Se     tau(  25) = (  -0.3333333   0.7698004   0.1502708  )
        26        Se     tau(  26) = (   0.0000000   0.7698004   0.1502708  )
        27        Se     tau(  27) = (   0.3333333   0.7698004   0.1502708  )
        28        Se     tau(  28) = (   0.1666667   0.0962250   1.1274795  )
        29        Se     tau(  29) = (   0.5000000   0.0962250   1.1274795  )
        30        Se     tau(  30) = (   0.8333333   0.0962250   1.1274795  )
        31        Se     tau(  31) = (  -0.0000000   0.3849002   1.1274795  )
        32        Se     tau(  32) = (   0.3333333   0.3849002   1.1274795  )
        33        Se     tau(  33) = (   0.6666667   0.3849002   1.1274795  )
        34        Se     tau(  34) = (  -0.1666667   0.6735753   1.1274795  )
        35        Se     tau(  35) = (   0.1666667   0.6735753   1.1274795  )
        36        Se     tau(  36) = (   0.5000000   0.6735753   1.1274795  )
        37        Se     tau(  37) = (   0.1666667   0.0962250   0.7891459  )
        38        Se     tau(  38) = (   0.5000000   0.0962250   0.7891459  )
        39        Se     tau(  39) = (   0.8333333   0.0962250   0.7891459  )
        40        Se     tau(  40) = (  -0.0000000   0.3849002   0.7891459  )
        41        Se     tau(  41) = (   0.3333333   0.3849002   0.7891459  )
        42        Se     tau(  42) = (   0.6666667   0.3849002   0.7891459  )
        43        Se     tau(  43) = (  -0.1666667   0.6735753   0.7891459  )
        44        Se     tau(  44) = (   0.1666667   0.6735753   0.7891459  )
        45        Se     tau(  45) = (   0.5000000   0.6735753   0.7891459  )
        46        Se     tau(  46) = (  -0.0000000   0.1924501   0.4886044  )
        47        Se     tau(  47) = (   0.3333333   0.1924501   0.4886044  )
        48        Se     tau(  48) = (   0.6666667   0.1924501   0.4886044  )
        49        Se     tau(  49) = (  -0.1666667   0.4811252   0.4886044  )
        50        Se     tau(  50) = (   0.1666667   0.4811252   0.4886044  )
        51        Se     tau(  51) = (   0.5000000   0.4811252   0.4886044  )
        52        Se     tau(  52) = (  -0.3333333   0.7698004   0.4886044  )
        53        Se     tau(  53) = (   0.0000000   0.7698004   0.4886044  )
        54        Se     tau(  54) = (   0.3333333   0.7698004   0.4886044  )

     -------------------------------------------------
     Parameters for Dispersion (Grimme-D2) Correction:
     -------------------------------------------------
       atom      VdW radius       C_6     

        W          3.349       2818.308
        Se         3.347        438.498

     number of k points=    12
                       cart. coord. in units 2pi/alat
        k(    1) = (   0.2500000   0.4330127   0.1956564), wk =   0.1666667
        k(    2) = (   0.2500000  -0.1443376   0.1956564), wk =   0.1666667
        k(    3) = (  -0.2500000  -0.4330127   0.1956564), wk =   0.1666667
        k(    4) = (  -0.2500000   0.4330127  -0.1956564), wk =   0.1666667
        k(    5) = (   0.2500000  -0.4330127  -0.1956564), wk =   0.1666667
        k(    6) = (   0.5000000  -0.0000000   0.1956564), wk =   0.1666667
        k(    7) = (  -0.5000000   0.0000000   0.1956564), wk =   0.1666667
        k(    8) = (  -0.2500000   0.1443376   0.1956564), wk =   0.1666667
        k(    9) = (  -0.2500000  -0.1443376  -0.1956564), wk =   0.1666667
        k(   10) = (   0.2500000   0.1443376  -0.1956564), wk =   0.1666667
        k(   11) = (   0.0000000  -0.2886751   0.1956564), wk =   0.1666667
        k(   12) = (  -0.0000000   0.2886751   0.1956564), wk =   0.1666667

     Dense  grid:   699065 G-vectors     FFT dimensions: ( 108, 108, 144)

     Estimated max dynamical RAM per process >     118.34 MB

     Estimated total dynamical RAM >      29.08 GB

     Initial potential from superposition of free atoms

     starting charge     827.9882, renormalised to     828.0000
     Starting wfcs are  504 randomized atomic wfcs

     total cpu time spent up to now is       12.3 secs

     Self-consistent Calculation

     iteration #  1     ecut=    80.00 Ry     beta= 0.50
     Davidson diagonalization with overlap
     ethr =  1.00E-02,  avg # of iterations =  2.0

     Threshold (ethr) on eigenvalues was too large:
     Diagonalizing with lowered threshold

     Davidson diagonalization with overlap
     ethr =  8.88E-05,  avg # of iterations =  5.5

     total cpu time spent up to now is       87.3 secs

     total energy              =  -11463.54697058 Ry
     estimated scf accuracy    <       1.19491142 Ry

     iteration #  2     ecut=    80.00 Ry     beta= 0.50
     Davidson diagonalization with overlap
     ethr =  1.44E-04,  avg # of iterations =  4.5

     total cpu time spent up to now is      119.2 secs

     total energy              =  -11463.65602165 Ry
     estimated scf accuracy    <       0.42408051 Ry

     iteration #  3     ecut=    80.00 Ry     beta= 0.50
     Davidson diagonalization with overlap
     ethr =  5.12E-05,  avg # of iterations =  6.0

     total cpu time spent up to now is      156.6 secs

     total energy              =  -11463.72909232 Ry
     estimated scf accuracy    <       0.21757122 Ry

     iteration #  4     ecut=    80.00 Ry     beta= 0.50
     Davidson diagonalization with overlap
     ethr =  2.63E-05,  avg # of iterations =  5.5

     total cpu time spent up to now is      189.7 secs

     total energy              =  -11463.76480177 Ry
     estimated scf accuracy    <       0.00585916 Ry

     iteration #  5     ecut=    80.00 Ry     beta= 0.50
     Davidson diagonalization with overlap
     ethr =  7.08E-07,  avg # of iterations =  9.0

     total cpu time spent up to now is      239.3 secs

     total energy              =  -11463.76774503 Ry
     estimated scf accuracy    <       0.01742673 Ry

     iteration #  6     ecut=    80.00 Ry     beta= 0.50
     Davidson diagonalization with overlap
     ethr =  7.08E-07,  avg # of iterations =  4.9

     total cpu time spent up to now is      270.9 secs

     total energy              =  -11463.76445016 Ry
     estimated scf accuracy    <       0.00758803 Ry

     iteration #  7     ecut=    80.00 Ry     beta= 0.50
     Davidson diagonalization with overlap
     ethr =  7.08E-07,  avg # of iterations =  6.0

     total cpu time spent up to now is      315.5 secs

     total energy              =  -11463.76780401 Ry
     estimated scf accuracy    <       0.01504981 Ry

     iteration #  8     ecut=    80.00 Ry     beta= 0.50
     Davidson diagonalization with overlap
     ethr =  7.08E-07,  avg # of iterations =  2.6

     total cpu time spent up to now is      344.2 secs

     total energy              =  -11463.76653569 Ry
     estimated scf accuracy    <       0.00651594 Ry

     iteration #  9     ecut=    80.00 Ry     beta= 0.50
     Davidson diagonalization with overlap
     ethr =  7.08E-07,  avg # of iterations =  5.0

     total cpu time spent up to now is      377.8 secs

     total energy              =  -11463.76765665 Ry
     estimated scf accuracy    <       0.00003675 Ry

     iteration # 10     ecut=    80.00 Ry     beta= 0.50
     Davidson diagonalization with overlap
     ethr =  4.44E-09,  avg # of iterations =  7.2

     total cpu time spent up to now is      424.0 secs

     total energy              =  -11463.76771327 Ry
     estimated scf accuracy    <       0.00002730 Ry

     iteration # 11     ecut=    80.00 Ry     beta= 0.50
     Davidson diagonalization with overlap
     ethr =  3.30E-09,  avg # of iterations =  6.0

     total cpu time spent up to now is      459.1 secs

     total energy              =  -11463.76771748 Ry
     estimated scf accuracy    <       0.00000828 Ry

     iteration # 12     ecut=    80.00 Ry     beta= 0.50
     Davidson diagonalization with overlap
     ethr =  1.00E-09,  avg # of iterations =  6.5

     total cpu time spent up to now is      492.6 secs

     total energy              =  -11463.76771831 Ry
     estimated scf accuracy    <       0.00000058 Ry

     iteration # 13     ecut=    80.00 Ry     beta= 0.50
     Davidson diagonalization with overlap
     ethr =  7.03E-11,  avg # of iterations =  9.3

     total cpu time spent up to now is      539.7 secs

     total energy              =  -11463.76771846 Ry
     estimated scf accuracy    <       0.00000139 Ry

     iteration # 14     ecut=    80.00 Ry     beta= 0.50
     Davidson diagonalization with overlap
     ethr =  7.03E-11,  avg # of iterations =  6.5

     total cpu time spent up to now is      575.1 secs

     total energy              =  -11463.76771856 Ry
     estimated scf accuracy    <       0.00000028 Ry

     iteration # 15     ecut=    80.00 Ry     beta= 0.50
     Davidson diagonalization with overlap
     ethr =  3.33E-11,  avg # of iterations =  6.8

     total cpu time spent up to now is      614.3 secs

     total energy              =  -11463.76771860 Ry
     estimated scf accuracy    <       0.00000043 Ry

     iteration # 16     ecut=    80.00 Ry     beta= 0.50
     Davidson diagonalization with overlap
     ethr =  3.33E-11,  avg # of iterations =  3.0

     total cpu time spent up to now is      641.7 secs

     total energy              =  -11463.76771856 Ry
     estimated scf accuracy    <       0.00000029 Ry

     iteration # 17     ecut=    80.00 Ry     beta= 0.50
     Davidson diagonalization with overlap
     ethr =  3.33E-11,  avg # of iterations =  3.7

     total cpu time spent up to now is      671.2 secs

     total energy              =  -11463.76771855 Ry
     estimated scf accuracy    <       0.00000007 Ry

     iteration # 18     ecut=    80.00 Ry     beta= 0.50
     Davidson diagonalization with overlap
     ethr =  8.76E-12,  avg # of iterations =  6.0

     total cpu time spent up to now is      714.1 secs

     total energy              =  -11463.76771858 Ry
     estimated scf accuracy    <       0.00000009 Ry

     iteration # 19     ecut=    80.00 Ry     beta= 0.50
     Davidson diagonalization with overlap
     ethr =  8.76E-12,  avg # of iterations =  2.0

     total cpu time spent up to now is      741.4 secs

     total energy              =  -11463.76771858 Ry
     estimated scf accuracy    <       0.00000004 Ry

     iteration # 20     ecut=    80.00 Ry     beta= 0.50
     Davidson diagonalization with overlap
     ethr =  4.39E-12,  avg # of iterations =  2.0

     total cpu time spent up to now is      767.4 secs

     total energy              =  -11463.76771858 Ry
     estimated scf accuracy    <       0.00000002 Ry

     iteration # 21     ecut=    80.00 Ry     beta= 0.50
     Davidson diagonalization with overlap
     ethr =  2.55E-12,  avg # of iterations =  6.5

     total cpu time spent up to now is      809.0 secs

     total energy              =  -11463.76771858 Ry
     estimated scf accuracy    <       0.00000001 Ry

     iteration # 22     ecut=    80.00 Ry     beta= 0.50
     Davidson diagonalization with overlap
     ethr =  1.24E-12,  avg # of iterations =  2.0

     total cpu time spent up to now is      834.2 secs

     total energy              =  -11463.76771858 Ry
     estimated scf accuracy    <          7.1E-09 Ry

     iteration # 23     ecut=    80.00 Ry     beta= 0.50
     Davidson diagonalization with overlap
     ethr =  8.60E-13,  avg # of iterations =  6.0

     total cpu time spent up to now is      863.4 secs

     total energy              =  -11463.76771858 Ry
     estimated scf accuracy    <          2.0E-09 Ry

     iteration # 24     ecut=    80.00 Ry     beta= 0.50
     Davidson diagonalization with overlap
     ethr =  2.41E-13,  avg # of iterations =  6.0

     total cpu time spent up to now is      901.3 secs

     total energy              =  -11463.76771858 Ry
     estimated scf accuracy    <          3.9E-10 Ry

     iteration # 25     ecut=    80.00 Ry     beta= 0.50
     Davidson diagonalization with overlap
     ethr =  1.00E-13,  avg # of iterations =  2.0

     total cpu time spent up to now is      927.0 secs

     total energy              =  -11463.76771858 Ry
     estimated scf accuracy    <          2.0E-10 Ry

     iteration # 26     ecut=    80.00 Ry     beta= 0.50
     Davidson diagonalization with overlap
     ethr =  1.00E-13,  avg # of iterations =  6.3

     total cpu time spent up to now is      956.5 secs

     End of self-consistent calculation

          k = 0.2500 0.4330 0.1957 ( 87350 PWs)   bands (ev):

   -60.5765 -60.5764 -60.5744 -60.5743 -60.5743 -60.5740 -60.5705 -60.5701
   -60.5700 -60.5697 -60.5687 -60.5685 -60.5685 -60.5685 -60.5684 -60.5679
   -60.5678 -60.5675 -34.1653 -34.1653 -34.1651 -34.1650 -34.1650 -34.1649
   -34.1648 -34.1648 -34.1648 -34.1648 -34.1648 -34.1647 -34.1647 -34.1646
   -34.1645 -34.1645 -34.1644 -34.1644 -34.1644 -34.1643 -34.1643 -34.1642
   -34.1642 -34.1642 -34.1641 -34.1641 -34.1640 -34.1640 -34.1639 -34.1638
   -34.1638 -34.1637 -34.1636 -34.1635 -34.1635 -34.1635 -34.1635 -34.1635
   -34.1633 -34.1632 -34.1631 -34.1630 -34.1630 -34.1628 -34.1627 -34.1626
   -34.1622 -34.1620 -34.1620 -34.1619 -34.1618 -34.1617 -34.1617 -34.1616
   -34.1614 -34.1612 -34.1612 -34.1612 -34.1611 -34.1611 -34.1610 -34.1610
   -34.1610 -34.1608 -34.1607 -34.1607 -34.1606 -34.1604 -34.1602 -34.1601
   -34.1582 -34.1581 -34.1323 -34.1323 -34.1320 -34.1320 -34.1319 -34.1319
   -34.1319 -34.1318 -34.1318 -34.1317 -34.1316 -34.1315 -34.1315 -34.1314
   -34.1314 -34.1314 -34.1313 -34.1313 -34.1312 -34.1312 -34.1312 -34.1311
   -34.1310 -34.1310 -34.1310 -34.1309 -34.1309 -34.1309 -34.1308 -34.1308
   -34.1308 -34.1307 -34.1307 -34.1307 -34.1306 -34.1306 -34.1306 -34.1305
   -34.1305 -34.1305 -34.1304 -34.1304 -34.1303 -34.1303 -34.1302 -34.1302
   -34.1302 -34.1301 -34.1301 -34.1300 -34.1300 -34.1300 -34.1299 -34.1299
   -34.1298 -34.1298 -34.1297 -34.1297 -34.1296 -34.1296 -34.1295 -34.1295
   -34.1294 -34.1293 -34.1293 -34.1292 -34.1291 -34.1290 -34.1290 -34.1288
   -34.1274 -34.1270 -34.1170 -34.1167 -34.1165 -34.1164 -34.1161 -34.1159
   -34.1158 -34.1157 -34.1155 -34.1154 -34.1153 -34.1153 -34.1153 -34.1152
   -34.1150 -34.1148 -34.1148 -34.1147 -34.1145 -34.1143 -34.1142 -34.1140
   -34.1137 -34.1134 -34.1134 -34.1133 -34.1131 -34.1130 -34.1129 -34.1128
   -34.1128 -34.1126 -34.1125 -34.1123 -34.1122 -34.1112 -24.9082 -24.9082
   -24.9079 -24.9076 -24.8980 -24.8975 -24.8748 -24.8744 -24.8608 -24.8608
   -24.8604 -24.8602 -24.8044 -24.8042 -24.7942 -24.7942 -24.7942 -24.7937
   -24.7860 -24.7856 -24.7811 -24.7811 -24.7807 -24.7805 -24.7786 -24.7782
   -24.7738 -24.7738 -24.7737 -24.7732 -24.7664 -24.7663 -24.7662 -24.7662
   -24.7659 -24.7656 -24.7635 -24.7632 -24.7559 -24.7559 -24.7557 -24.7554
   -24.7519 -24.7519 -24.7515 -24.7514 -24.7337 -24.7333 -24.7148 -24.7148
   -24.7145 -24.7143 -24.7013 -24.7009  -1.2043  -0.9744  -0.8278  -0.8266
    -0.6081  -0.6065  -0.1278   0.0807   0.0817   0.0822   0.0831   0.2332
     0.2463   0.2476   0.4016   0.4024   0.4939   0.5326   0.5339   0.5825
     0.5834   0.6100   0.6354   0.6368   0.6903   0.7670   0.7795   0.7805
     0.8054   0.8080   0.8088   0.8956   0.9096   0.9103   0.9310   0.9685
     7.0753   7.0875   7.0884   7.3178   7.3500   7.3510   7.5183   7.5191
     7.5500   7.8387   7.9143   7.9428   7.9438   7.9702   8.1524   8.1531
     8.1558   8.1958   8.2013   8.2023   8.2793   8.2797   8.3483   8.3494
     8.3897   8.5431   8.7030   8.7040   8.8030   8.8039   9.0024   9.0035
     9.0635   9.1162   9.1175   9.1869   9.2587   9.3760   9.3766   9.4388
     9.4388   9.5141   9.5172   9.5176   9.5870   9.5886   9.8200   9.8621
     9.8629   9.9458   9.9462  10.0838  10.0993  10.1402  10.2298  10.2517
    10.2889  10.3151  10.3159  10.3457  10.3863  10.3873  10.4076  10.4085
    10.4642  10.4808  10.4809  10.5959  10.8916  10.9291  10.9301  10.9341
    10.9356  11.0510  11.0525  11.1039  11.1048  11.1399  11.1787  11.1799
    11.1848  11.3675  11.3891  11.3926  11.4059  11.4068  11.4906  11.5851
    11.6019  11.6025  11.6449  11.6453  11.6463  11.6469  11.6750  11.6844
    11.7491  11.7497  11.8219  11.8227  11.9001  11.9014  12.0747  12.0768
    12.2054  12.4037  12.4048  12.4880  12.7267  12.7272  12.7298  12.7309
    12.7665  12.7674  12.7802  12.7812  12.7821  12.7828  12.8818  12.9325
    12.9334  12.9451  13.0104  13.1619  13.1869  13.2948

          k = 0.2500-0.1443 0.1957 ( 87383 PWs)   bands (ev):

   -60.5776 -60.5776 -60.5735 -60.5734 -60.5718 -60.5718 -60.5718 -60.5717
   -60.5700 -60.5697 -60.5697 -60.5694 -60.5692 -60.5688 -60.5676 -60.5676
   -60.5674 -60.5672 -34.1655 -34.1653 -34.1652 -34.1652 -34.1652 -34.1651
   -34.1651 -34.1650 -34.1650 -34.1649 -34.1648 -34.1647 -34.1647 -34.1647
   -34.1646 -34.1646 -34.1646 -34.1645 -34.1645 -34.1645 -34.1644 -34.1644
   -34.1643 -34.1643 -34.1642 -34.1641 -34.1641 -34.1640 -34.1640 -34.1640
   -34.1639 -34.1638 -34.1637 -34.1635 -34.1632 -34.1631 -34.1630 -34.1630
   -34.1630 -34.1626 -34.1625 -34.1625 -34.1624 -34.1624 -34.1623 -34.1621
   -34.1620 -34.1619 -34.1618 -34.1617 -34.1617 -34.1617 -34.1616 -34.1616
   -34.1615 -34.1615 -34.1614 -34.1613 -34.1612 -34.1612 -34.1612 -34.1611
   -34.1611 -34.1610 -34.1610 -34.1608 -34.1608 -34.1607 -34.1605 -34.1603
   -34.1583 -34.1581 -34.1325 -34.1325 -34.1319 -34.1319 -34.1318 -34.1318
   -34.1317 -34.1317 -34.1317 -34.1316 -34.1316 -34.1315 -34.1315 -34.1314
   -34.1314 -34.1313 -34.1313 -34.1312 -34.1312 -34.1312 -34.1311 -34.1311
   -34.1311 -34.1310 -34.1310 -34.1310 -34.1309 -34.1309 -34.1309 -34.1308
   -34.1308 -34.1308 -34.1307 -34.1307 -34.1307 -34.1306 -34.1306 -34.1306
   -34.1305 -34.1305 -34.1305 -34.1304 -34.1304 -34.1304 -34.1303 -34.1303
   -34.1302 -34.1302 -34.1301 -34.1300 -34.1300 -34.1300 -34.1299 -34.1298
   -34.1298 -34.1298 -34.1297 -34.1297 -34.1297 -34.1296 -34.1295 -34.1294
   -34.1294 -34.1293 -34.1291 -34.1291 -34.1290 -34.1290 -34.1289 -34.1288
   -34.1274 -34.1270 -34.1173 -34.1167 -34.1164 -34.1162 -34.1160 -34.1159
   -34.1157 -34.1157 -34.1156 -34.1155 -34.1155 -34.1153 -34.1152 -34.1152
   -34.1151 -34.1150 -34.1148 -34.1148 -34.1145 -34.1142 -34.1141 -34.1138
   -34.1137 -34.1134 -34.1133 -34.1133 -34.1132 -34.1131 -34.1130 -34.1128
   -34.1128 -34.1127 -34.1125 -34.1123 -34.1122 -34.1112 -24.9016 -24.9011
   -24.8816 -24.8816 -24.8813 -24.8810 -24.8777 -24.8777 -24.8774 -24.8770
   -24.8352 -24.8352 -24.8349 -24.8346 -24.8103 -24.8100 -24.8086 -24.8086
   -24.8082 -24.8081 -24.8045 -24.8041 -24.7899 -24.7896 -24.7824 -24.7824
   -24.7822 -24.7821 -24.7722 -24.7721 -24.7719 -24.7719 -24.7694 -24.7691
   -24.7619 -24.7619 -24.7617 -24.7616 -24.7441 -24.7441 -24.7438 -24.7436
   -24.7399 -24.7395 -24.7305 -24.7305 -24.7301 -24.7300 -24.7169 -24.7165
   -24.7057 -24.7053 -24.6939 -24.6935  -1.4060  -1.1727  -0.6537  -0.4405
    -0.3327  -0.3315  -0.2406  -0.1360  -0.1345   0.1410   0.1769   0.1776
     0.1787   0.3306   0.3319   0.3438   0.3551   0.3557   0.4751   0.4767
     0.6118   0.6124   0.6283   0.6290   0.7105   0.7749   0.7761   0.8045
     0.8053   0.8368   0.8381   0.8514   0.9461   0.9469   1.0072   1.0082
     6.8243   7.1811   7.4520   7.5360   7.5364   7.6787   7.7378   7.7638
     7.7647   7.8012   7.8016   7.8891   7.8899   7.9143   7.9152   8.0722
     8.0729   8.2262   8.2273   8.3023   8.4074   8.4145   8.4347   8.4351
     8.5066   8.5069   8.5589   8.5592   8.6652   8.6666   8.9019   8.9026
     8.9890   9.0306   9.0313   9.0743   9.1927   9.1931   9.1978   9.3827
     9.3842   9.5487   9.5493   9.5517   9.5528   9.5770   9.5777   9.5890
     9.6203   9.6208   9.6796   9.7842   9.7853  10.0677  10.2017  10.2029
    10.3211  10.3249  10.3265  10.3347  10.3361  10.4872  10.4874  10.4943
    10.5169  10.5179  10.5943  10.7410  10.7426  10.7798  10.8097  11.1374
    11.1454  11.1504  11.1508  11.1992  11.2241  11.2259  11.3852  11.3864
    11.4348  11.4353  11.4564  11.4625  11.4631  11.5537  11.6294  11.6302
    11.6310  11.6674  11.6690  11.7004  11.7010  11.7859  11.7865  11.8019
    11.8025  11.8240  11.9118  12.0287  12.0498  12.0503  12.0932  12.1056
    12.2130  12.2138  12.3353  12.3995  12.4411  12.5122  12.5499  12.5505
    12.5533  12.5791  12.5796  12.5851  12.6373  12.6379  12.7186  12.7189
    13.1204  13.1205  13.3295  13.3296  13.3519  13.6529

          k =-0.2500-0.4330 0.1957 ( 87350 PWs)   bands (ev):

   -60.5765 -60.5764 -60.5744 -60.5743 -60.5743 -60.5740 -60.5705 -60.5701
   -60.5700 -60.5697 -60.5687 -60.5685 -60.5685 -60.5685 -60.5684 -60.5679
   -60.5678 -60.5675 -34.1653 -34.1653 -34.1651 -34.1650 -34.1650 -34.1649
   -34.1648 -34.1648 -34.1648 -34.1648 -34.1648 -34.1647 -34.1647 -34.1646
   -34.1645 -34.1645 -34.1644 -34.1644 -34.1644 -34.1643 -34.1643 -34.1642
   -34.1642 -34.1642 -34.1641 -34.1641 -34.1640 -34.1640 -34.1639 -34.1638
   -34.1638 -34.1637 -34.1636 -34.1635 -34.1635 -34.1635 -34.1635 -34.1635
   -34.1633 -34.1632 -34.1631 -34.1630 -34.1630 -34.1628 -34.1627 -34.1626
   -34.1622 -34.1620 -34.1620 -34.1619 -34.1618 -34.1617 -34.1617 -34.1616
   -34.1614 -34.1612 -34.1612 -34.1612 -34.1611 -34.1611 -34.1610 -34.1610
   -34.1610 -34.1608 -34.1607 -34.1607 -34.1606 -34.1604 -34.1602 -34.1601
   -34.1582 -34.1581 -34.1323 -34.1323 -34.1321 -34.1320 -34.1319 -34.1319
   -34.1318 -34.1318 -34.1318 -34.1317 -34.1316 -34.1316 -34.1315 -34.1315
   -34.1314 -34.1314 -34.1313 -34.1313 -34.1312 -34.1312 -34.1311 -34.1311
   -34.1311 -34.1310 -34.1310 -34.1309 -34.1309 -34.1309 -34.1308 -34.1308
   -34.1308 -34.1307 -34.1307 -34.1307 -34.1306 -34.1306 -34.1306 -34.1305
   -34.1305 -34.1305 -34.1304 -34.1303 -34.1303 -34.1303 -34.1302 -34.1302
   -34.1301 -34.1301 -34.1301 -34.1300 -34.1300 -34.1299 -34.1299 -34.1299
   -34.1298 -34.1298 -34.1297 -34.1297 -34.1296 -34.1296 -34.1295 -34.1294
   -34.1294 -34.1293 -34.1293 -34.1292 -34.1291 -34.1290 -34.1290 -34.1288
   -34.1274 -34.1270 -34.1170 -34.1167 -34.1165 -34.1164 -34.1161 -34.1159
   -34.1158 -34.1157 -34.1155 -34.1154 -34.1153 -34.1153 -34.1153 -34.1152
   -34.1150 -34.1148 -34.1148 -34.1147 -34.1145 -34.1143 -34.1142 -34.1140
   -34.1137 -34.1135 -34.1134 -34.1133 -34.1131 -34.1130 -34.1129 -34.1128
   -34.1128 -34.1126 -34.1125 -34.1123 -34.1122 -34.1112 -24.9082 -24.9082
   -24.9079 -24.9076 -24.8980 -24.8975 -24.8748 -24.8744 -24.8608 -24.8608
   -24.8604 -24.8602 -24.8044 -24.8042 -24.7942 -24.7942 -24.7942 -24.7937
   -24.7860 -24.7856 -24.7811 -24.7811 -24.7807 -24.7805 -24.7786 -24.7782
   -24.7738 -24.7738 -24.7737 -24.7732 -24.7664 -24.7663 -24.7662 -24.7662
   -24.7659 -24.7656 -24.7635 -24.7632 -24.7559 -24.7559 -24.7557 -24.7554
   -24.7519 -24.7519 -24.7515 -24.7514 -24.7337 -24.7333 -24.7148 -24.7148
   -24.7145 -24.7143 -24.7013 -24.7009  -1.2043  -0.9744  -0.8278  -0.8266
    -0.6080  -0.6065  -0.1278   0.0807   0.0815   0.0823   0.0833   0.2332
     0.2463   0.2476   0.4016   0.4024   0.4939   0.5326   0.5339   0.5825
     0.5833   0.6100   0.6354   0.6369   0.6903   0.7670   0.7795   0.7805
     0.8054   0.8080   0.8087   0.8957   0.9096   0.9103   0.9310   0.9685
     7.0753   7.0875   7.0884   7.3178   7.3500   7.3510   7.5183   7.5191
     7.5501   7.8388   7.9143   7.9428   7.9437   7.9702   8.1524   8.1530
     8.1558   8.1958   8.2014   8.2022   8.2792   8.2798   8.3483   8.3492
     8.3897   8.5432   8.7029   8.7040   8.8031   8.8039   9.0023   9.0035
     9.0636   9.1161   9.1174   9.1870   9.2585   9.3762   9.3766   9.4387
     9.4388   9.5140   9.5173   9.5177   9.5872   9.5886   9.8201   9.8624
     9.8628   9.9457   9.9461  10.0841  10.0993  10.1401  10.2296  10.2517
    10.2889  10.3152  10.3157  10.3455  10.3862  10.3874  10.4076  10.4085
    10.4643  10.4806  10.4809  10.5957  10.8918  10.9292  10.9302  10.9342
    10.9357  11.0510  11.0524  11.1039  11.1047  11.1398  11.1788  11.1798
    11.1849  11.3675  11.3889  11.3926  11.4059  11.4067  11.4907  11.5852
    11.6020  11.6025  11.6450  11.6453  11.6460  11.6471  11.6750  11.6846
    11.7492  11.7498  11.8219  11.8226  11.9000  11.9013  12.0748  12.0768
    12.2055  12.4035  12.4049  12.4877  12.7267  12.7272  12.7297  12.7310
    12.7664  12.7674  12.7802  12.7812  12.7821  12.7828  12.8818  12.9325
    12.9334  12.9451  13.0104  13.1622  13.1869  13.2947

          k =-0.2500 0.4330-0.1957 ( 87350 PWs)   bands (ev):

   -60.5765 -60.5764 -60.5746 -60.5743 -60.5743 -60.5738 -60.5705 -60.5701
   -60.5700 -60.5696 -60.5690 -60.5685 -60.5685 -60.5685 -60.5681 -60.5679
   -60.5679 -60.5676 -34.1654 -34.1653 -34.1651 -34.1650 -34.1650 -34.1649
   -34.1648 -34.1648 -34.1648 -34.1648 -34.1648 -34.1647 -34.1647 -34.1646
   -34.1646 -34.1644 -34.1644 -34.1644 -34.1643 -34.1643 -34.1643 -34.1643
   -34.1642 -34.1642 -34.1641 -34.1641 -34.1640 -34.1640 -34.1639 -34.1639
   -34.1637 -34.1637 -34.1636 -34.1636 -34.1635 -34.1635 -34.1635 -34.1634
   -34.1633 -34.1632 -34.1630 -34.1630 -34.1630 -34.1629 -34.1627 -34.1625
   -34.1623 -34.1620 -34.1619 -34.1619 -34.1618 -34.1617 -34.1617 -34.1616
   -34.1614 -34.1613 -34.1612 -34.1611 -34.1611 -34.1611 -34.1610 -34.1610
   -34.1610 -34.1608 -34.1607 -34.1607 -34.1606 -34.1604 -34.1602 -34.1601
   -34.1582 -34.1581 -34.1323 -34.1323 -34.1320 -34.1320 -34.1319 -34.1319
   -34.1318 -34.1318 -34.1318 -34.1317 -34.1316 -34.1316 -34.1315 -34.1314
   -34.1314 -34.1313 -34.1313 -34.1313 -34.1312 -34.1312 -34.1311 -34.1311
   -34.1311 -34.1310 -34.1310 -34.1309 -34.1309 -34.1309 -34.1308 -34.1308
   -34.1308 -34.1307 -34.1307 -34.1307 -34.1306 -34.1306 -34.1306 -34.1305
   -34.1305 -34.1305 -34.1304 -34.1304 -34.1303 -34.1303 -34.1302 -34.1302
   -34.1301 -34.1301 -34.1300 -34.1300 -34.1300 -34.1300 -34.1299 -34.1299
   -34.1299 -34.1298 -34.1298 -34.1297 -34.1296 -34.1295 -34.1295 -34.1295
   -34.1294 -34.1293 -34.1292 -34.1292 -34.1291 -34.1290 -34.1290 -34.1288
   -34.1274 -34.1270 -34.1170 -34.1166 -34.1165 -34.1164 -34.1161 -34.1159
   -34.1158 -34.1157 -34.1155 -34.1154 -34.1154 -34.1153 -34.1153 -34.1151
   -34.1150 -34.1148 -34.1148 -34.1147 -34.1145 -34.1143 -34.1143 -34.1140
   -34.1136 -34.1135 -34.1134 -34.1133 -34.1130 -34.1130 -34.1129 -34.1128
   -34.1128 -34.1127 -34.1125 -34.1123 -34.1122 -34.1112 -24.9082 -24.9082
   -24.9078 -24.9076 -24.8980 -24.8976 -24.8748 -24.8743 -24.8608 -24.8608
   -24.8606 -24.8601 -24.8044 -24.8042 -24.7942 -24.7942 -24.7941 -24.7937
   -24.7860 -24.7856 -24.7811 -24.7811 -24.7808 -24.7805 -24.7786 -24.7781
   -24.7738 -24.7737 -24.7737 -24.7733 -24.7664 -24.7663 -24.7662 -24.7662
   -24.7660 -24.7656 -24.7635 -24.7632 -24.7559 -24.7559 -24.7555 -24.7554
   -24.7519 -24.7519 -24.7517 -24.7513 -24.7337 -24.7332 -24.7148 -24.7148
   -24.7146 -24.7143 -24.7013 -24.7009  -1.2044  -0.9744  -0.8279  -0.8265
    -0.6081  -0.6064  -0.1278   0.0807   0.0818   0.0823   0.0832   0.2332
     0.2463   0.2478   0.4016   0.4024   0.4938   0.5327   0.5335   0.5825
     0.5832   0.6099   0.6355   0.6366   0.6905   0.7671   0.7795   0.7802
     0.8054   0.8080   0.8090   0.8955   0.9096   0.9107   0.9312   0.9682
     7.0752   7.0878   7.0883   7.3176   7.3504   7.3510   7.5183   7.5190
     7.5497   7.8388   7.9145   7.9429   7.9436   7.9702   8.1522   8.1528
     8.1562   8.1960   8.2013   8.2021   8.2791   8.2795   8.3483   8.3494
     8.3894   8.5429   8.7033   8.7040   8.8030   8.8038   9.0024   9.0029
     9.0640   9.1163   9.1180   9.1866   9.2588   9.3760   9.3771   9.4386
     9.4390   9.5144   9.5173   9.5178   9.5874   9.5880   9.8203   9.8621
     9.8629   9.9454   9.9466  10.0841  10.0993  10.1405  10.2299  10.2516
    10.2886  10.3152  10.3160  10.3457  10.3863  10.3868  10.4075  10.4086
    10.4638  10.4802  10.4819  10.5959  10.8917  10.9294  10.9298  10.9339
    10.9357  11.0513  11.0520  11.1035  11.1048  11.1391  11.1793  11.1800
    11.1856  11.3677  11.3894  11.3929  11.4061  11.4068  11.4904  11.5843
    11.6020  11.6024  11.6451  11.6452  11.6460  11.6472  11.6742  11.6841
    11.7484  11.7499  11.8216  11.8226  11.9005  11.9012  12.0750  12.0764
    12.2059  12.4040  12.4047  12.4880  12.7266  12.7271  12.7301  12.7312
    12.7663  12.7674  12.7801  12.7809  12.7819  12.7827  12.8818  12.9325
    12.9335  12.9449  13.0105  13.1620  13.1868  13.2951

          k = 0.2500-0.4330-0.1957 ( 87350 PWs)   bands (ev):

   -60.5765 -60.5764 -60.5746 -60.5743 -60.5743 -60.5738 -60.5705 -60.5701
   -60.5700 -60.5696 -60.5690 -60.5685 -60.5685 -60.5685 -60.5681 -60.5679
   -60.5679 -60.5676 -34.1654 -34.1653 -34.1651 -34.1650 -34.1650 -34.1649
   -34.1648 -34.1648 -34.1648 -34.1648 -34.1647 -34.1647 -34.1647 -34.1646
   -34.1646 -34.1644 -34.1644 -34.1644 -34.1643 -34.1643 -34.1643 -34.1643
   -34.1642 -34.1642 -34.1641 -34.1641 -34.1640 -34.1640 -34.1639 -34.1639
   -34.1637 -34.1637 -34.1636 -34.1636 -34.1635 -34.1635 -34.1635 -34.1634
   -34.1633 -34.1632 -34.1630 -34.1630 -34.1630 -34.1629 -34.1627 -34.1625
   -34.1623 -34.1620 -34.1620 -34.1619 -34.1618 -34.1617 -34.1617 -34.1616
   -34.1614 -34.1613 -34.1612 -34.1611 -34.1611 -34.1611 -34.1610 -34.1610
   -34.1610 -34.1608 -34.1607 -34.1607 -34.1606 -34.1604 -34.1602 -34.1601
   -34.1582 -34.1581 -34.1323 -34.1323 -34.1320 -34.1320 -34.1319 -34.1319
   -34.1318 -34.1318 -34.1318 -34.1317 -34.1316 -34.1316 -34.1315 -34.1314
   -34.1314 -34.1314 -34.1313 -34.1313 -34.1312 -34.1312 -34.1311 -34.1311
   -34.1310 -34.1310 -34.1310 -34.1309 -34.1309 -34.1309 -34.1308 -34.1308
   -34.1308 -34.1307 -34.1307 -34.1307 -34.1306 -34.1306 -34.1306 -34.1305
   -34.1305 -34.1304 -34.1304 -34.1304 -34.1303 -34.1303 -34.1302 -34.1302
   -34.1302 -34.1301 -34.1301 -34.1300 -34.1300 -34.1300 -34.1299 -34.1299
   -34.1299 -34.1298 -34.1298 -34.1297 -34.1296 -34.1296 -34.1295 -34.1295
   -34.1294 -34.1293 -34.1292 -34.1292 -34.1291 -34.1290 -34.1290 -34.1288
   -34.1274 -34.1270 -34.1170 -34.1166 -34.1165 -34.1164 -34.1161 -34.1159
   -34.1158 -34.1157 -34.1155 -34.1154 -34.1154 -34.1153 -34.1153 -34.1151
   -34.1150 -34.1148 -34.1148 -34.1147 -34.1145 -34.1143 -34.1143 -34.1140
   -34.1136 -34.1135 -34.1134 -34.1133 -34.1130 -34.1130 -34.1129 -34.1128
   -34.1128 -34.1127 -34.1125 -34.1123 -34.1122 -34.1112 -24.9082 -24.9082
   -24.9078 -24.9076 -24.8980 -24.8976 -24.8748 -24.8743 -24.8608 -24.8608
   -24.8606 -24.8601 -24.8044 -24.8042 -24.7942 -24.7942 -24.7941 -24.7937
   -24.7860 -24.7856 -24.7811 -24.7811 -24.7808 -24.7805 -24.7786 -24.7781
   -24.7738 -24.7737 -24.7737 -24.7733 -24.7664 -24.7663 -24.7662 -24.7662
   -24.7660 -24.7656 -24.7635 -24.7632 -24.7559 -24.7559 -24.7555 -24.7554
   -24.7519 -24.7519 -24.7517 -24.7513 -24.7337 -24.7332 -24.7148 -24.7148
   -24.7146 -24.7143 -24.7013 -24.7009  -1.2044  -0.9744  -0.8278  -0.8265
    -0.6081  -0.6064  -0.1278   0.0807   0.0816   0.0823   0.0833   0.2332
     0.2463   0.2478   0.4016   0.4024   0.4938   0.5327   0.5335   0.5825
     0.5832   0.6099   0.6355   0.6366   0.6905   0.7671   0.7795   0.7802
     0.8054   0.8080   0.8090   0.8955   0.9096   0.9107   0.9312   0.9682
     7.0752   7.0878   7.0883   7.3176   7.3504   7.3510   7.5184   7.5191
     7.5497   7.8389   7.9144   7.9429   7.9435   7.9702   8.1523   8.1528
     8.1562   8.1960   8.2013   8.2020   8.2790   8.2796   8.3483   8.3492
     8.3893   8.5429   8.7033   8.7040   8.8031   8.8038   9.0025   9.0027
     9.0642   9.1163   9.1179   9.1867   9.2586   9.3760   9.3773   9.4386
     9.4390   9.5142   9.5174   9.5178   9.5875   9.5880   9.8205   9.8621
     9.8630   9.9455   9.9464  10.0844  10.0993  10.1405  10.2298  10.2515
    10.2886  10.3153  10.3157  10.3455  10.3862  10.3869  10.4075  10.4088
    10.4640  10.4802  10.4817  10.5958  10.8918  10.9294  10.9299  10.9339
    10.9358  11.0512  11.0519  11.1035  11.1047  11.1390  11.1794  11.1799
    11.1857  11.3678  11.3892  11.3928  11.4059  11.4070  11.4904  11.5843
    11.6021  11.6024  11.6450  11.6453  11.6459  11.6473  11.6741  11.6844
    11.7485  11.7499  11.8216  11.8226  11.9004  11.9011  12.0750  12.0764
    12.2059  12.4038  12.4048  12.4878  12.7266  12.7270  12.7300  12.7313
    12.7665  12.7672  12.7800  12.7809  12.7819  12.7828  12.8818  12.9326
    12.9335  12.9449  13.0105  13.1623  13.1868  13.2951

          k = 0.5000-0.0000 0.1957 ( 87350 PWs)   bands (ev):

   -60.5765 -60.5764 -60.5745 -60.5743 -60.5743 -60.5739 -60.5705 -60.5701
   -60.5700 -60.5697 -60.5688 -60.5685 -60.5685 -60.5685 -60.5683 -60.5679
   -60.5679 -60.5675 -34.1653 -34.1653 -34.1651 -34.1650 -34.1650 -34.1649
   -34.1649 -34.1648 -34.1648 -34.1648 -34.1648 -34.1647 -34.1646 -34.1646
   -34.1645 -34.1644 -34.1644 -34.1644 -34.1643 -34.1643 -34.1643 -34.1642
   -34.1642 -34.1642 -34.1641 -34.1641 -34.1640 -34.1640 -34.1639 -34.1638
   -34.1637 -34.1637 -34.1636 -34.1636 -34.1635 -34.1635 -34.1634 -34.1634
   -34.1633 -34.1633 -34.1630 -34.1630 -34.1630 -34.1629 -34.1627 -34.1626
   -34.1621 -34.1620 -34.1619 -34.1619 -34.1618 -34.1617 -34.1617 -34.1616
   -34.1614 -34.1613 -34.1612 -34.1611 -34.1611 -34.1611 -34.1610 -34.1610
   -34.1610 -34.1608 -34.1607 -34.1607 -34.1606 -34.1603 -34.1602 -34.1601
   -34.1582 -34.1581 -34.1323 -34.1323 -34.1320 -34.1320 -34.1319 -34.1319
   -34.1318 -34.1318 -34.1318 -34.1317 -34.1317 -34.1316 -34.1315 -34.1314
   -34.1314 -34.1314 -34.1313 -34.1313 -34.1312 -34.1311 -34.1311 -34.1311
   -34.1311 -34.1310 -34.1310 -34.1309 -34.1309 -34.1308 -34.1308 -34.1308
   -34.1308 -34.1307 -34.1307 -34.1307 -34.1306 -34.1306 -34.1306 -34.1305
   -34.1305 -34.1304 -34.1304 -34.1304 -34.1303 -34.1303 -34.1302 -34.1302
   -34.1301 -34.1301 -34.1301 -34.1300 -34.1300 -34.1300 -34.1299 -34.1299
   -34.1299 -34.1298 -34.1297 -34.1297 -34.1296 -34.1296 -34.1295 -34.1295
   -34.1294 -34.1293 -34.1292 -34.1292 -34.1292 -34.1290 -34.1289 -34.1288
   -34.1274 -34.1270 -34.1170 -34.1166 -34.1165 -34.1165 -34.1160 -34.1160
   -34.1158 -34.1157 -34.1155 -34.1154 -34.1153 -34.1153 -34.1153 -34.1152
   -34.1149 -34.1148 -34.1148 -34.1147 -34.1145 -34.1143 -34.1142 -34.1140
   -34.1137 -34.1135 -34.1134 -34.1133 -34.1131 -34.1130 -34.1129 -34.1128
   -34.1128 -34.1127 -34.1124 -34.1124 -34.1122 -34.1112 -24.9082 -24.9082
   -24.9078 -24.9076 -24.8980 -24.8976 -24.8748 -24.8743 -24.8608 -24.8608
   -24.8605 -24.8602 -24.8044 -24.8042 -24.7942 -24.7942 -24.7942 -24.7937
   -24.7860 -24.7856 -24.7811 -24.7811 -24.7808 -24.7805 -24.7786 -24.7782
   -24.7738 -24.7738 -24.7737 -24.7733 -24.7664 -24.7663 -24.7662 -24.7662
   -24.7660 -24.7656 -24.7635 -24.7632 -24.7559 -24.7559 -24.7556 -24.7554
   -24.7519 -24.7519 -24.7516 -24.7513 -24.7337 -24.7332 -24.7148 -24.7148
   -24.7145 -24.7143 -24.7013 -24.7009  -1.2043  -0.9744  -0.8277  -0.8267
    -0.6079  -0.6066  -0.1278   0.0810   0.0816   0.0824   0.0828   0.2332
     0.2464   0.2476   0.4017   0.4022   0.4938   0.5326   0.5338   0.5826
     0.5832   0.6100   0.6355   0.6367   0.6904   0.7670   0.7795   0.7803
     0.8054   0.8080   0.8089   0.8956   0.9096   0.9105   0.9311   0.9684
     7.0753   7.0876   7.0884   7.3177   7.3502   7.3511   7.5185   7.5188
     7.5499   7.8388   7.9144   7.9429   7.9436   7.9701   8.1524   8.1528
     8.1561   8.1959   8.2013   8.2022   8.2792   8.2796   8.3484   8.3494
     8.3896   8.5430   8.7032   8.7040   8.8030   8.8038   9.0024   9.0032
     9.0637   9.1164   9.1176   9.1867   9.2588   9.3761   9.3767   9.4387
     9.4389   9.5144   9.5172   9.5177   9.5871   9.5883   9.8201   9.8621
     9.8629   9.9456   9.9465  10.0838  10.0993  10.1404  10.2299  10.2517
    10.2888  10.3151  10.3161  10.3458  10.3862  10.3870  10.4077  10.4084
    10.4640  10.4805  10.4814  10.5959  10.8916  10.9293  10.9298  10.9341
    10.9355  11.0511  11.0524  11.1039  11.1047  11.1396  11.1788  11.1801
    11.1851  11.3676  11.3894  11.3927  11.4060  11.4068  11.4904  11.5847
    11.6020  11.6024  11.6450  11.6452  11.6462  11.6470  11.6746  11.6841
    11.7486  11.7498  11.8218  11.8226  11.9004  11.9013  12.0749  12.0765
    12.2056  12.4039  12.4047  12.4881  12.7266  12.7273  12.7300  12.7309
    12.7664  12.7675  12.7803  12.7809  12.7820  12.7827  12.8818  12.9325
    12.9335  12.9451  13.0105  13.1619  13.1868  13.2950

          k =-0.5000 0.0000 0.1957 ( 87350 PWs)   bands (ev):

   -60.5765 -60.5764 -60.5745 -60.5743 -60.5743 -60.5739 -60.5705 -60.5701
   -60.5700 -60.5697 -60.5688 -60.5685 -60.5685 -60.5685 -60.5683 -60.5679
   -60.5679 -60.5675 -34.1653 -34.1653 -34.1651 -34.1650 -34.1650 -34.1649
   -34.1649 -34.1648 -34.1648 -34.1648 -34.1648 -34.1647 -34.1646 -34.1646
   -34.1645 -34.1644 -34.1644 -34.1644 -34.1644 -34.1643 -34.1643 -34.1642
   -34.1642 -34.1642 -34.1641 -34.1641 -34.1640 -34.1640 -34.1639 -34.1638
   -34.1637 -34.1637 -34.1636 -34.1636 -34.1635 -34.1635 -34.1634 -34.1634
   -34.1633 -34.1633 -34.1630 -34.1630 -34.1630 -34.1629 -34.1627 -34.1626
   -34.1621 -34.1620 -34.1619 -34.1619 -34.1618 -34.1617 -34.1617 -34.1616
   -34.1614 -34.1613 -34.1612 -34.1612 -34.1611 -34.1611 -34.1610 -34.1610
   -34.1610 -34.1608 -34.1607 -34.1607 -34.1606 -34.1603 -34.1602 -34.1601
   -34.1582 -34.1581 -34.1323 -34.1323 -34.1320 -34.1320 -34.1319 -34.1319
   -34.1318 -34.1318 -34.1318 -34.1317 -34.1317 -34.1316 -34.1315 -34.1314
   -34.1314 -34.1314 -34.1313 -34.1313 -34.1312 -34.1312 -34.1311 -34.1311
   -34.1310 -34.1310 -34.1310 -34.1309 -34.1309 -34.1308 -34.1308 -34.1308
   -34.1308 -34.1307 -34.1307 -34.1307 -34.1306 -34.1306 -34.1306 -34.1305
   -34.1305 -34.1305 -34.1304 -34.1304 -34.1303 -34.1302 -34.1302 -34.1302
   -34.1301 -34.1301 -34.1301 -34.1301 -34.1300 -34.1300 -34.1299 -34.1299
   -34.1299 -34.1298 -34.1297 -34.1297 -34.1296 -34.1296 -34.1295 -34.1295
   -34.1294 -34.1293 -34.1292 -34.1292 -34.1292 -34.1290 -34.1289 -34.1288
   -34.1274 -34.1270 -34.1170 -34.1166 -34.1165 -34.1164 -34.1160 -34.1160
   -34.1158 -34.1157 -34.1155 -34.1154 -34.1153 -34.1153 -34.1153 -34.1152
   -34.1149 -34.1148 -34.1148 -34.1147 -34.1145 -34.1143 -34.1142 -34.1140
   -34.1137 -34.1135 -34.1134 -34.1133 -34.1131 -34.1130 -34.1129 -34.1128
   -34.1128 -34.1127 -34.1124 -34.1124 -34.1122 -34.1112 -24.9082 -24.9082
   -24.9078 -24.9076 -24.8980 -24.8976 -24.8748 -24.8743 -24.8608 -24.8608
   -24.8605 -24.8602 -24.8044 -24.8042 -24.7942 -24.7942 -24.7942 -24.7937
   -24.7860 -24.7856 -24.7811 -24.7811 -24.7808 -24.7805 -24.7786 -24.7782
   -24.7738 -24.7738 -24.7737 -24.7733 -24.7664 -24.7663 -24.7662 -24.7662
   -24.7660 -24.7656 -24.7635 -24.7632 -24.7559 -24.7559 -24.7556 -24.7554
   -24.7519 -24.7519 -24.7516 -24.7513 -24.7337 -24.7332 -24.7148 -24.7148
   -24.7145 -24.7143 -24.7013 -24.7009  -1.2043  -0.9744  -0.8277  -0.8267
    -0.6079  -0.6066  -0.1278   0.0810   0.0812   0.0824   0.0832   0.2332
     0.2464   0.2476   0.4017   0.4022   0.4938   0.5326   0.5337   0.5826
     0.5832   0.6100   0.6355   0.6367   0.6904   0.7670   0.7795   0.7803
     0.8054   0.8080   0.8089   0.8956   0.9096   0.9105   0.9311   0.9684
     7.0752   7.0876   7.0883   7.3177   7.3502   7.3511   7.5185   7.5189
     7.5499   7.8388   7.9143   7.9429   7.9436   7.9702   8.1525   8.1528
     8.1560   8.1959   8.2014   8.2021   8.2790   8.2798   8.3484   8.3491
     8.3895   8.5431   8.7031   8.7041   8.8031   8.8039   9.0023   9.0032
     9.0640   9.1163   9.1175   9.1869   9.2584   9.3762   9.3769   9.4386
     9.4389   9.5140   9.5174   9.5177   9.5874   9.5883   9.8204   9.8623
     9.8629   9.9457   9.9461  10.0844  10.0993  10.1403  10.2296  10.2516
    10.2887  10.3152  10.3157  10.3454  10.3862  10.3872  10.4076  10.4086
    10.4642  10.4805  10.4812  10.5957  10.8919  10.9293  10.9301  10.9341
    10.9357  11.0511  11.0521  11.1040  11.1044  11.1393  11.1789  11.1801
    11.1853  11.3677  11.3890  11.3927  11.4058  11.4070  11.4906  11.5848
    11.6021  11.6025  11.6450  11.6453  11.6459  11.6472  11.6745  11.6846
    11.7490  11.7498  11.8218  11.8225  11.9001  11.9012  12.0750  12.0766
    12.2057  12.4036  12.4049  12.4876  12.7267  12.7271  12.7298  12.7311
    12.7665  12.7672  12.7801  12.7811  12.7819  12.7828  12.8819  12.9326
    12.9334  12.9450  13.0104  13.1624  13.1868  13.2948

          k =-0.2500 0.1443 0.1957 ( 87383 PWs)   bands (ev):

   -60.5776 -60.5776 -60.5735 -60.5734 -60.5718 -60.5718 -60.5718 -60.5717
   -60.5700 -60.5697 -60.5697 -60.5694 -60.5692 -60.5688 -60.5676 -60.5676
   -60.5674 -60.5672 -34.1655 -34.1653 -34.1652 -34.1652 -34.1652 -34.1651
   -34.1651 -34.1650 -34.1650 -34.1649 -34.1648 -34.1647 -34.1647 -34.1647
   -34.1646 -34.1646 -34.1646 -34.1645 -34.1645 -34.1645 -34.1644 -34.1644
   -34.1644 -34.1643 -34.1642 -34.1641 -34.1641 -34.1640 -34.1640 -34.1640
   -34.1639 -34.1638 -34.1637 -34.1635 -34.1632 -34.1631 -34.1630 -34.1630
   -34.1630 -34.1626 -34.1625 -34.1625 -34.1624 -34.1624 -34.1623 -34.1621
   -34.1620 -34.1619 -34.1618 -34.1617 -34.1617 -34.1617 -34.1616 -34.1616
   -34.1615 -34.1615 -34.1614 -34.1613 -34.1612 -34.1612 -34.1612 -34.1611
   -34.1611 -34.1610 -34.1610 -34.1608 -34.1608 -34.1607 -34.1605 -34.1603
   -34.1582 -34.1581 -34.1325 -34.1325 -34.1320 -34.1319 -34.1319 -34.1318
   -34.1317 -34.1317 -34.1316 -34.1316 -34.1316 -34.1315 -34.1315 -34.1314
   -34.1314 -34.1313 -34.1313 -34.1312 -34.1312 -34.1311 -34.1311 -34.1311
   -34.1311 -34.1310 -34.1310 -34.1310 -34.1310 -34.1309 -34.1309 -34.1308
   -34.1308 -34.1308 -34.1307 -34.1307 -34.1307 -34.1306 -34.1306 -34.1305
   -34.1305 -34.1305 -34.1305 -34.1304 -34.1304 -34.1304 -34.1303 -34.1303
   -34.1302 -34.1302 -34.1301 -34.1301 -34.1300 -34.1299 -34.1299 -34.1298
   -34.1298 -34.1298 -34.1297 -34.1297 -34.1297 -34.1296 -34.1295 -34.1294
   -34.1294 -34.1293 -34.1291 -34.1291 -34.1290 -34.1290 -34.1289 -34.1288
   -34.1274 -34.1270 -34.1173 -34.1167 -34.1164 -34.1162 -34.1160 -34.1159
   -34.1157 -34.1157 -34.1157 -34.1155 -34.1155 -34.1153 -34.1152 -34.1152
   -34.1151 -34.1150 -34.1148 -34.1148 -34.1145 -34.1142 -34.1141 -34.1138
   -34.1137 -34.1134 -34.1133 -34.1133 -34.1132 -34.1131 -34.1130 -34.1128
   -34.1128 -34.1127 -34.1125 -34.1123 -34.1122 -34.1112 -24.9016 -24.9011
   -24.8816 -24.8816 -24.8813 -24.8810 -24.8777 -24.8777 -24.8774 -24.8770
   -24.8352 -24.8352 -24.8349 -24.8346 -24.8103 -24.8100 -24.8086 -24.8086
   -24.8082 -24.8081 -24.8045 -24.8041 -24.7899 -24.7896 -24.7824 -24.7824
   -24.7822 -24.7821 -24.7722 -24.7721 -24.7719 -24.7719 -24.7694 -24.7691
   -24.7619 -24.7619 -24.7617 -24.7616 -24.7441 -24.7441 -24.7438 -24.7436
   -24.7399 -24.7395 -24.7305 -24.7305 -24.7301 -24.7300 -24.7169 -24.7165
   -24.7057 -24.7053 -24.6939 -24.6935  -1.4060  -1.1727  -0.6537  -0.4405
    -0.3327  -0.3315  -0.2406  -0.1360  -0.1345   0.1410   0.1769   0.1774
     0.1789   0.3306   0.3319   0.3437   0.3551   0.3557   0.4752   0.4766
     0.6118   0.6125   0.6283   0.6290   0.7104   0.7749   0.7762   0.8045
     0.8053   0.8368   0.8380   0.8514   0.9461   0.9470   1.0072   1.0081
     6.8243   7.1810   7.4521   7.5362   7.5365   7.6789   7.7378   7.7638
     7.7645   7.8010   7.8015   7.8892   7.8902   7.9141   7.9152   8.0719
     8.0730   8.2265   8.2271   8.3023   8.4073   8.4139   8.4352   8.4354
     8.5063   8.5067   8.5593   8.5596   8.6655   8.6667   8.9011   8.9020
     8.9891   9.0307   9.0311   9.0740   9.1929   9.1934   9.1989   9.3826
     9.3831   9.5491   9.5494   9.5515   9.5536   9.5767   9.5779   9.5890
     9.6202   9.6205   9.6792   9.7848   9.7859  10.0677  10.2018  10.2025
    10.3210  10.3250  10.3256  10.3345  10.3362  10.4874  10.4878  10.4943
    10.5169  10.5184  10.5943  10.7411  10.7422  10.7798  10.8096  11.1374
    11.1450  11.1499  11.1508  11.1992  11.2241  11.2259  11.3856  11.3860
    11.4352  11.4354  11.4567  11.4626  11.4631  11.5537  11.6296  11.6299
    11.6319  11.6676  11.6680  11.7003  11.7012  11.7859  11.7865  11.8022
    11.8032  11.8240  11.9118  12.0287  12.0494  12.0497  12.0931  12.1058
    12.2129  12.2139  12.3353  12.3990  12.4411  12.5116  12.5500  12.5509
    12.5532  12.5791  12.5795  12.5854  12.6370  12.6375  12.7189  12.7192
    13.1204  13.1205  13.3294  13.3296  13.3522  13.6528

          k =-0.2500-0.1443-0.1957 ( 87383 PWs)   bands (ev):

   -60.5776 -60.5776 -60.5734 -60.5734 -60.5722 -60.5718 -60.5718 -60.5715
   -60.5697 -60.5697 -60.5697 -60.5696 -60.5692 -60.5688 -60.5676 -60.5676
   -60.5674 -60.5672 -34.1655 -34.1653 -34.1653 -34.1652 -34.1652 -34.1651
   -34.1651 -34.1650 -34.1650 -34.1649 -34.1648 -34.1647 -34.1647 -34.1647
   -34.1646 -34.1646 -34.1646 -34.1645 -34.1645 -34.1644 -34.1644 -34.1644
   -34.1644 -34.1643 -34.1643 -34.1641 -34.1641 -34.1640 -34.1640 -34.1640
   -34.1639 -34.1638 -34.1637 -34.1636 -34.1633 -34.1631 -34.1630 -34.1630
   -34.1630 -34.1626 -34.1625 -34.1625 -34.1624 -34.1624 -34.1622 -34.1621
   -34.1621 -34.1619 -34.1618 -34.1618 -34.1617 -34.1617 -34.1616 -34.1616
   -34.1615 -34.1615 -34.1615 -34.1613 -34.1612 -34.1612 -34.1611 -34.1611
   -34.1611 -34.1610 -34.1610 -34.1608 -34.1607 -34.1607 -34.1605 -34.1603
   -34.1582 -34.1582 -34.1325 -34.1325 -34.1319 -34.1319 -34.1319 -34.1318
   -34.1317 -34.1317 -34.1316 -34.1316 -34.1316 -34.1315 -34.1315 -34.1314
   -34.1314 -34.1313 -34.1313 -34.1312 -34.1312 -34.1312 -34.1311 -34.1311
   -34.1310 -34.1310 -34.1310 -34.1310 -34.1310 -34.1309 -34.1309 -34.1309
   -34.1308 -34.1308 -34.1307 -34.1307 -34.1307 -34.1306 -34.1306 -34.1306
   -34.1305 -34.1305 -34.1305 -34.1304 -34.1304 -34.1303 -34.1303 -34.1303
   -34.1302 -34.1302 -34.1301 -34.1301 -34.1300 -34.1299 -34.1299 -34.1299
   -34.1298 -34.1298 -34.1297 -34.1297 -34.1296 -34.1296 -34.1295 -34.1294
   -34.1293 -34.1293 -34.1292 -34.1291 -34.1290 -34.1289 -34.1289 -34.1287
   -34.1274 -34.1269 -34.1173 -34.1167 -34.1164 -34.1161 -34.1161 -34.1159
   -34.1157 -34.1157 -34.1156 -34.1155 -34.1154 -34.1153 -34.1153 -34.1152
   -34.1151 -34.1150 -34.1148 -34.1148 -34.1145 -34.1142 -34.1141 -34.1138
   -34.1137 -34.1135 -34.1133 -34.1133 -34.1132 -34.1131 -34.1130 -34.1128
   -34.1128 -34.1127 -34.1125 -34.1123 -34.1122 -34.1112 -24.9016 -24.9012
   -24.8816 -24.8816 -24.8813 -24.8809 -24.8777 -24.8777 -24.8774 -24.8770
   -24.8352 -24.8352 -24.8348 -24.8346 -24.8103 -24.8100 -24.8086 -24.8086
   -24.8083 -24.8080 -24.8045 -24.8041 -24.7899 -24.7896 -24.7824 -24.7824
   -24.7822 -24.7821 -24.7722 -24.7721 -24.7719 -24.7719 -24.7694 -24.7691
   -24.7619 -24.7619 -24.7617 -24.7616 -24.7441 -24.7441 -24.7439 -24.7435
   -24.7399 -24.7394 -24.7305 -24.7305 -24.7303 -24.7299 -24.7169 -24.7165
   -24.7057 -24.7053 -24.6939 -24.6934  -1.4060  -1.1727  -0.6536  -0.4404
    -0.3327  -0.3317  -0.2406  -0.1360  -0.1347   0.1410   0.1769   0.1776
     0.1784   0.3307   0.3318   0.3440   0.3551   0.3558   0.4753   0.4766
     0.6118   0.6127   0.6283   0.6291   0.7103   0.7749   0.7761   0.8045
     0.8054   0.8368   0.8381   0.8510   0.9461   0.9468   1.0072   1.0082
     6.8243   7.1808   7.4518   7.5362   7.5366   7.6789   7.7378   7.7637
     7.7647   7.8012   7.8016   7.8893   7.8901   7.9141   7.9149   8.0723
     8.0728   8.2263   8.2272   8.3024   8.4077   8.4142   8.4351   8.4357
     8.5060   8.5069   8.5594   8.5596   8.6655   8.6669   8.9010   8.9018
     8.9896   9.0305   9.0311   9.0741   9.1927   9.1928   9.1985   9.3828
     9.3832   9.5489   9.5495   9.5515   9.5528   9.5768   9.5779   9.5893
     9.6200   9.6204   9.6789   9.7848   9.7856  10.0676  10.2018  10.2019
    10.3209  10.3249  10.3252  10.3350  10.3361  10.4872  10.4877  10.4948
    10.5168  10.5176  10.5949  10.7413  10.7420  10.7800  10.8100  11.1381
    11.1447  11.1506  11.1509  11.1989  11.2241  11.2263  11.3859  11.3869
    11.4345  11.4357  11.4558  11.4628  11.4633  11.5534  11.6294  11.6302
    11.6310  11.6676  11.6677  11.7009  11.7016  11.7859  11.7863  11.8015
    11.8030  11.8238  11.9116  12.0298  12.0496  12.0500  12.0943  12.1059
    12.2123  12.2131  12.3354  12.3992  12.4407  12.5111  12.5505  12.5511
    12.5533  12.5796  12.5800  12.5850  12.6367  12.6374  12.7186  12.7194
    13.1204  13.1206  13.3295  13.3296  13.3518  13.6528

          k = 0.2500 0.1443-0.1957 ( 87383 PWs)   bands (ev):

   -60.5776 -60.5776 -60.5734 -60.5734 -60.5722 -60.5718 -60.5718 -60.5715
   -60.5697 -60.5697 -60.5697 -60.5696 -60.5692 -60.5688 -60.5676 -60.5676
   -60.5674 -60.5672 -34.1655 -34.1653 -34.1653 -34.1652 -34.1652 -34.1651
   -34.1651 -34.1650 -34.1650 -34.1649 -34.1648 -34.1647 -34.1647 -34.1647
   -34.1646 -34.1646 -34.1646 -34.1645 -34.1645 -34.1644 -34.1644 -34.1644
   -34.1643 -34.1643 -34.1643 -34.1641 -34.1641 -34.1640 -34.1640 -34.1640
   -34.1639 -34.1638 -34.1637 -34.1636 -34.1633 -34.1631 -34.1630 -34.1630
   -34.1630 -34.1626 -34.1625 -34.1625 -34.1624 -34.1624 -34.1622 -34.1621
   -34.1620 -34.1619 -34.1618 -34.1618 -34.1617 -34.1617 -34.1616 -34.1616
   -34.1615 -34.1615 -34.1615 -34.1613 -34.1612 -34.1612 -34.1611 -34.1611
   -34.1611 -34.1610 -34.1610 -34.1608 -34.1607 -34.1607 -34.1605 -34.1603
   -34.1582 -34.1582 -34.1325 -34.1325 -34.1320 -34.1319 -34.1318 -34.1318
   -34.1317 -34.1316 -34.1316 -34.1316 -34.1315 -34.1315 -34.1315 -34.1314
   -34.1314 -34.1314 -34.1313 -34.1312 -34.1312 -34.1311 -34.1311 -34.1311
   -34.1311 -34.1310 -34.1310 -34.1310 -34.1309 -34.1309 -34.1309 -34.1308
   -34.1308 -34.1308 -34.1308 -34.1307 -34.1307 -34.1306 -34.1306 -34.1305
   -34.1305 -34.1305 -34.1305 -34.1304 -34.1304 -34.1303 -34.1303 -34.1303
   -34.1302 -34.1302 -34.1301 -34.1301 -34.1300 -34.1299 -34.1299 -34.1299
   -34.1298 -34.1298 -34.1297 -34.1297 -34.1297 -34.1296 -34.1295 -34.1294
   -34.1293 -34.1293 -34.1292 -34.1291 -34.1290 -34.1289 -34.1289 -34.1287
   -34.1274 -34.1269 -34.1173 -34.1167 -34.1164 -34.1161 -34.1161 -34.1159
   -34.1157 -34.1157 -34.1156 -34.1155 -34.1154 -34.1153 -34.1153 -34.1152
   -34.1151 -34.1150 -34.1148 -34.1148 -34.1145 -34.1142 -34.1141 -34.1138
   -34.1137 -34.1135 -34.1133 -34.1133 -34.1132 -34.1131 -34.1130 -34.1128
   -34.1128 -34.1127 -34.1125 -34.1123 -34.1122 -34.1112 -24.9016 -24.9012
   -24.8816 -24.8816 -24.8813 -24.8809 -24.8777 -24.8777 -24.8774 -24.8770
   -24.8352 -24.8352 -24.8348 -24.8346 -24.8103 -24.8100 -24.8086 -24.8086
   -24.8083 -24.8080 -24.8045 -24.8041 -24.7899 -24.7896 -24.7824 -24.7824
   -24.7822 -24.7821 -24.7722 -24.7721 -24.7719 -24.7719 -24.7694 -24.7691
   -24.7619 -24.7619 -24.7617 -24.7616 -24.7441 -24.7441 -24.7439 -24.7435
   -24.7399 -24.7394 -24.7305 -24.7305 -24.7303 -24.7299 -24.7169 -24.7165
   -24.7057 -24.7053 -24.6939 -24.6934  -1.4060  -1.1727  -0.6536  -0.4404
    -0.3327  -0.3317  -0.2406  -0.1360  -0.1347   0.1410   0.1769   0.1773
     0.1787   0.3307   0.3318   0.3440   0.3551   0.3559   0.4752   0.4766
     0.6118   0.6127   0.6283   0.6290   0.7103   0.7749   0.7761   0.8045
     0.8055   0.8368   0.8380   0.8510   0.9461   0.9470   1.0072   1.0081
     6.8243   7.1809   7.4517   7.5361   7.5365   7.6789   7.7379   7.7639
     7.7646   7.8014   7.8017   7.8890   7.8903   7.9142   7.9153   8.0719
     8.0731   8.2266   8.2271   8.3024   8.4078   8.4142   8.4346   8.4349
     8.5068   8.5069   8.5583   8.5596   8.6651   8.6665   8.9019   8.9030
     8.9896   9.0305   9.0311   9.0741   9.1925   9.1930   9.1981   9.3828
     9.3833   9.5487   9.5492   9.5521   9.5525   9.5770   9.5778   9.5893
     9.6198   9.6206   9.6795   9.7844   9.7853  10.0674  10.2021  10.2031
    10.3208  10.3249  10.3255  10.3347  10.3354  10.4871  10.4875  10.4947
    10.5169  10.5173  10.5949  10.7414  10.7423  10.7800  10.8099  11.1381
    11.1440  11.1502  11.1509  11.1989  11.2241  11.2262  11.3862  11.3865
    11.4351  11.4357  11.4565  11.4626  11.4634  11.5539  11.6295  11.6302
    11.6306  11.6677  11.6685  11.7004  11.7014  11.7863  11.7868  11.8022
    11.8023  11.8239  11.9116  12.0298  12.0492  12.0501  12.0943  12.1052
    12.2119  12.2135  12.3354  12.3987  12.4407  12.5117  12.5504  12.5513
    12.5533  12.5795  12.5800  12.5846  12.6368  12.6378  12.7184  12.7191
    13.1204  13.1205  13.3294  13.3298  13.3522  13.6527

          k = 0.0000-0.2887 0.1957 ( 87383 PWs)   bands (ev):

   -60.5776 -60.5776 -60.5735 -60.5734 -60.5720 -60.5718 -60.5718 -60.5716
   -60.5699 -60.5697 -60.5697 -60.5694 -60.5692 -60.5688 -60.5676 -60.5676
   -60.5674 -60.5672 -34.1655 -34.1653 -34.1652 -34.1652 -34.1651 -34.1651
   -34.1650 -34.1650 -34.1650 -34.1649 -34.1649 -34.1648 -34.1647 -34.1647
   -34.1646 -34.1646 -34.1645 -34.1645 -34.1645 -34.1644 -34.1644 -34.1644
   -34.1644 -34.1643 -34.1643 -34.1642 -34.1641 -34.1640 -34.1640 -34.1640
   -34.1639 -34.1638 -34.1636 -34.1635 -34.1633 -34.1631 -34.1630 -34.1630
   -34.1630 -34.1626 -34.1626 -34.1625 -34.1624 -34.1623 -34.1622 -34.1621
   -34.1620 -34.1619 -34.1618 -34.1618 -34.1617 -34.1617 -34.1616 -34.1616
   -34.1615 -34.1615 -34.1615 -34.1613 -34.1612 -34.1612 -34.1612 -34.1611
   -34.1611 -34.1611 -34.1609 -34.1608 -34.1608 -34.1607 -34.1604 -34.1602
   -34.1582 -34.1582 -34.1325 -34.1325 -34.1320 -34.1319 -34.1319 -34.1318
   -34.1317 -34.1316 -34.1316 -34.1316 -34.1316 -34.1315 -34.1314 -34.1314
   -34.1314 -34.1313 -34.1313 -34.1312 -34.1312 -34.1312 -34.1311 -34.1311
   -34.1310 -34.1310 -34.1310 -34.1310 -34.1309 -34.1309 -34.1309 -34.1309
   -34.1308 -34.1307 -34.1307 -34.1307 -34.1307 -34.1306 -34.1306 -34.1306
   -34.1305 -34.1305 -34.1305 -34.1304 -34.1304 -34.1303 -34.1303 -34.1303
   -34.1302 -34.1302 -34.1301 -34.1301 -34.1300 -34.1299 -34.1299 -34.1299
   -34.1298 -34.1298 -34.1297 -34.1297 -34.1296 -34.1296 -34.1296 -34.1294
   -34.1294 -34.1293 -34.1291 -34.1291 -34.1290 -34.1289 -34.1289 -34.1288
   -34.1274 -34.1270 -34.1173 -34.1167 -34.1164 -34.1161 -34.1161 -34.1159
   -34.1157 -34.1156 -34.1156 -34.1155 -34.1155 -34.1153 -34.1152 -34.1152
   -34.1151 -34.1150 -34.1148 -34.1148 -34.1145 -34.1142 -34.1141 -34.1138
   -34.1137 -34.1135 -34.1133 -34.1132 -34.1132 -34.1131 -34.1130 -34.1128
   -34.1128 -34.1127 -34.1126 -34.1123 -34.1122 -34.1112 -24.9016 -24.9011
   -24.8816 -24.8816 -24.8813 -24.8809 -24.8777 -24.8777 -24.8774 -24.8770
   -24.8352 -24.8352 -24.8349 -24.8345 -24.8103 -24.8100 -24.8086 -24.8086
   -24.8083 -24.8080 -24.8045 -24.8041 -24.7899 -24.7896 -24.7824 -24.7824
   -24.7822 -24.7821 -24.7722 -24.7721 -24.7719 -24.7719 -24.7694 -24.7691
   -24.7619 -24.7619 -24.7617 -24.7616 -24.7441 -24.7441 -24.7438 -24.7436
   -24.7399 -24.7395 -24.7305 -24.7305 -24.7303 -24.7300 -24.7169 -24.7165
   -24.7057 -24.7053 -24.6939 -24.6934  -1.4060  -1.1727  -0.6537  -0.4405
    -0.3329  -0.3314  -0.2406  -0.1361  -0.1345   0.1410   0.1768   0.1777
     0.1786   0.3306   0.3319   0.3439   0.3549   0.3559   0.4752   0.4766
     0.6117   0.6127   0.6282   0.6291   0.7104   0.7749   0.7761   0.8045
     0.8054   0.8368   0.8381   0.8512   0.9461   0.9469   1.0072   1.0082
     6.8243   7.1809   7.4519   7.5362   7.5366   7.6789   7.7378   7.7635
     7.7649   7.8009   7.8017   7.8890   7.8904   7.9140   7.9152   8.0720
     8.0730   8.2264   8.2272   8.3024   8.4075   8.4140   8.4351   8.4355
     8.5061   8.5068   8.5593   8.5596   8.6655   8.6668   8.9009   8.9020
     8.9893   9.0304   9.0313   9.0740   9.1928   9.1931   9.1987   9.3824
     9.3834   9.5490   9.5494   9.5515   9.5532   9.5761   9.5784   9.5892
     9.6199   9.6206   9.6790   9.7845   9.7861  10.0676  10.2018  10.2021
    10.3209  10.3249  10.3255  10.3343  10.3366  10.4872  10.4878  10.4945
    10.5167  10.5182  10.5946  10.7411  10.7422  10.7799  10.8098  11.1377
    11.1448  11.1502  11.1509  11.1990  11.2241  11.2261  11.3857  11.3865
    11.4350  11.4355  11.4563  11.4624  11.4635  11.5536  11.6294  11.6300
    11.6316  11.6676  11.6679  11.7002  11.7018  11.7857  11.7866  11.8021
    11.8028  11.8239  11.9117  12.0293  12.0495  12.0499  12.0937  12.1059
    12.2128  12.2133  12.3353  12.3991  12.4409  12.5113  12.5501  12.5512
    12.5532  12.5791  12.5799  12.5852  12.6367  12.6376  12.7187  12.7194
    13.1204  13.1206  13.3294  13.3296  13.3520  13.6528

          k =-0.0000 0.2887 0.1957 ( 87383 PWs)   bands (ev):

   -60.5776 -60.5776 -60.5735 -60.5734 -60.5720 -60.5718 -60.5718 -60.5716
   -60.5699 -60.5697 -60.5697 -60.5694 -60.5692 -60.5688 -60.5676 -60.5676
   -60.5674 -60.5672 -34.1655 -34.1653 -34.1652 -34.1652 -34.1651 -34.1651
   -34.1650 -34.1650 -34.1650 -34.1649 -34.1649 -34.1648 -34.1647 -34.1647
   -34.1646 -34.1646 -34.1646 -34.1645 -34.1645 -34.1644 -34.1644 -34.1644
   -34.1643 -34.1643 -34.1643 -34.1642 -34.1641 -34.1640 -34.1640 -34.1640
   -34.1639 -34.1638 -34.1636 -34.1635 -34.1633 -34.1631 -34.1630 -34.1630
   -34.1630 -34.1626 -34.1625 -34.1625 -34.1624 -34.1623 -34.1622 -34.1621
   -34.1620 -34.1619 -34.1618 -34.1618 -34.1617 -34.1617 -34.1616 -34.1616
   -34.1615 -34.1615 -34.1615 -34.1613 -34.1612 -34.1612 -34.1612 -34.1611
   -34.1611 -34.1611 -34.1609 -34.1608 -34.1608 -34.1607 -34.1604 -34.1602
   -34.1582 -34.1582 -34.1325 -34.1325 -34.1320 -34.1319 -34.1319 -34.1318
   -34.1317 -34.1317 -34.1316 -34.1316 -34.1316 -34.1315 -34.1314 -34.1314
   -34.1314 -34.1314 -34.1313 -34.1312 -34.1312 -34.1312 -34.1311 -34.1311
   -34.1310 -34.1310 -34.1310 -34.1310 -34.1309 -34.1309 -34.1309 -34.1309
   -34.1308 -34.1308 -34.1307 -34.1307 -34.1307 -34.1306 -34.1306 -34.1306
   -34.1305 -34.1305 -34.1305 -34.1304 -34.1304 -34.1304 -34.1303 -34.1303
   -34.1302 -34.1302 -34.1301 -34.1301 -34.1300 -34.1299 -34.1299 -34.1299
   -34.1298 -34.1298 -34.1297 -34.1297 -34.1296 -34.1296 -34.1296 -34.1294
   -34.1294 -34.1293 -34.1291 -34.1291 -34.1290 -34.1289 -34.1289 -34.1288
   -34.1274 -34.1270 -34.1173 -34.1167 -34.1164 -34.1161 -34.1161 -34.1159
   -34.1157 -34.1156 -34.1156 -34.1155 -34.1155 -34.1153 -34.1152 -34.1152
   -34.1151 -34.1150 -34.1148 -34.1148 -34.1145 -34.1142 -34.1141 -34.1138
   -34.1137 -34.1135 -34.1133 -34.1132 -34.1132 -34.1131 -34.1130 -34.1128
   -34.1128 -34.1127 -34.1125 -34.1123 -34.1122 -34.1112 -24.9016 -24.9011
   -24.8816 -24.8816 -24.8813 -24.8809 -24.8777 -24.8777 -24.8774 -24.8770
   -24.8352 -24.8352 -24.8349 -24.8345 -24.8103 -24.8100 -24.8086 -24.8086
   -24.8083 -24.8080 -24.8045 -24.8041 -24.7899 -24.7896 -24.7824 -24.7824
   -24.7822 -24.7821 -24.7722 -24.7721 -24.7719 -24.7719 -24.7694 -24.7691
   -24.7619 -24.7619 -24.7617 -24.7616 -24.7441 -24.7441 -24.7438 -24.7436
   -24.7399 -24.7395 -24.7305 -24.7305 -24.7303 -24.7300 -24.7169 -24.7165
   -24.7057 -24.7053 -24.6939 -24.6934  -1.4060  -1.1727  -0.6537  -0.4405
    -0.3329  -0.3314  -0.2406  -0.1361  -0.1345   0.1410   0.1768   0.1777
     0.1786   0.3306   0.3319   0.3439   0.3550   0.3559   0.4752   0.4766
     0.6117   0.6127   0.6282   0.6291   0.7104   0.7749   0.7761   0.8045
     0.8054   0.8368   0.8381   0.8512   0.9461   0.9469   1.0072   1.0082
     6.8243   7.1810   7.4518   7.5359   7.5366   7.6788   7.7378   7.7636
     7.7649   7.8012   7.8017   7.8888   7.8903   7.9142   7.9153   8.0720
     8.0730   8.2263   8.2273   8.3024   8.4076   8.4143   8.4345   8.4352
     8.5068   8.5069   8.5586   8.5595   8.6651   8.6666   8.9019   8.9028
     8.9893   9.0304   9.0314   9.0742   9.1924   9.1932   9.1979   9.3826
     9.3838   9.5486   9.5493   9.5518   9.5527   9.5767   9.5780   9.5892
     9.6199   9.6208   9.6795   9.7838   9.7858  10.0675  10.2015  10.2034
    10.3210  10.3248  10.3262  10.3349  10.3355  10.4871  10.4875  10.4945
    10.5168  10.5177  10.5946  10.7411  10.7425  10.7799  10.8098  11.1378
    11.1447  11.1502  11.1509  11.1990  11.2242  11.2260  11.3856  11.3865
    11.4347  11.4357  11.4565  11.4623  11.4635  11.5538  11.6293  11.6301
    11.6311  11.6674  11.6689  11.7002  11.7014  11.7859  11.7869  11.8021
    11.8024  11.8240  11.9117  12.0293  12.0497  12.0500  12.0937  12.1054
    12.2125  12.2136  12.3353  12.3991  12.4409  12.5119  12.5501  12.5510
    12.5533  12.5791  12.5800  12.5848  12.6370  12.6379  12.7184  12.7191
    13.1204  13.1205  13.3295  13.3297  13.3521  13.6528

     highest occupied level (ev):    13.6529

!    total energy              =  -11463.76771858 Ry
     estimated scf accuracy    <          3.4E-11 Ry

     The total energy is the sum of the following terms:
     one-electron contribution =   -5282.12014412 Ry
     hartree contribution      =    2926.58376043 Ry
     xc contribution           =   -2341.79767521 Ry
     ewald contribution        =   -6764.44675922 Ry
     Dispersion Correction     =      -1.98690046 Ry

     convergence has been achieved in  26 iterations

     Forces acting on atoms (cartesian axes, Ry/au):

     atom    1 type  1   force =    -0.00001076   -0.00000010    0.00004226
     atom    2 type  1   force =    -0.00000038    0.00000711   -0.00000539
     atom    3 type  1   force =    -0.00000525    0.00000349   -0.00000843
     atom    4 type  1   force =    -0.00000607   -0.00000173   -0.00000274
     atom    5 type  1   force =     0.00000573    0.00000027   -0.00001102
     atom    6 type  1   force =     0.00000061    0.00000000    0.00000351
     atom    7 type  1   force =    -0.00000736   -0.00000299   -0.00000129
     atom    8 type  1   force =     0.00000424   -0.00000001    0.00000801
     atom    9 type  1   force =    -0.00000048   -0.00000682   -0.00001258
     atom   10 type  1   force =    -0.00203632    0.00101914   -0.00214429
     atom   11 type  1   force =    -0.00001543   -0.00001398   -0.00004628
     atom   12 type  1   force =     0.00004329    0.00018154   -0.00064331
     atom   13 type  1   force =    -0.00027122   -0.00120992   -0.00140299
     atom   14 type  1   force =    -0.00005794   -0.00008599   -0.00009551
     atom   15 type  1   force =     0.00002133    0.00004043   -0.00003960
     atom   16 type  1   force =    -0.00000024    0.00000901   -0.00004439
     atom   17 type  1   force =    -0.00002416    0.00000530   -0.00004812
     atom   18 type  1   force =     0.00009132    0.00004621   -0.00006780
     atom   19 type  2   force =     0.00276124    0.00001029    0.00533039
     atom   20 type  2   force =    -0.00017839   -0.00000114    0.00072088
     atom   21 type  2   force =    -0.00025000   -0.00001355    0.00077628
     atom   22 type  2   force =    -0.00004603    0.00014291    0.00076697
     atom   23 type  2   force =    -0.00002458   -0.00007646    0.00072953
     atom   24 type  2   force =     0.00000569   -0.00000013    0.00064513
     atom   25 type  2   force =    -0.00001185    0.00007075    0.00073927
     atom   26 type  2   force =     0.00000543    0.00000025    0.00064522
     atom   27 type  2   force =    -0.00005847   -0.00012320    0.00075726
     atom   28 type  2   force =     0.00005379   -0.00002379   -0.00068256
     atom   29 type  2   force =    -0.00000163    0.00000292   -0.00064602
     atom   30 type  2   force =    -0.00009851   -0.00006449   -0.00080250
     atom   31 type  2   force =     0.00001266    0.00008822   -0.00074267
     atom   32 type  2   force =     0.00000448    0.00000008   -0.00063614
     atom   33 type  2   force =    -0.00000453    0.00000565   -0.00064289
     atom   34 type  2   force =    -0.00000356   -0.00000127   -0.00064839
     atom   35 type  2   force =     0.00000165   -0.00000185   -0.00064444
     atom   36 type  2   force =     0.00000461   -0.00000528   -0.00063965
     atom   37 type  2   force =     0.00000071   -0.00000016    0.00064438
     atom   38 type  2   force =     0.00000255   -0.00000023    0.00064529
     atom   39 type  2   force =     0.00000027   -0.00000027    0.00064454
     atom   40 type  2   force =     0.00000036    0.00000053    0.00064472
     atom   41 type  2   force =    -0.00000110   -0.00000120    0.00064868
     atom   42 type  2   force =     0.00000220   -0.00000012    0.00064586
     atom   43 type  2   force =     0.00000112   -0.00000101    0.00064549
     atom   44 type  2   force =     0.00000087    0.00000102    0.00064587
     atom   45 type  2   force =     0.00000127    0.00000183    0.00064746
     atom   46 type  2   force =     0.00005914   -0.00000004   -0.00113289
     atom   47 type  2   force =    -0.00006987   -0.00006534   -0.00069168
     atom   48 type  2   force =     0.00001544   -0.00001428   -0.00062500
     atom   49 type  2   force =     0.00008049   -0.00001230   -0.00066815
     atom   50 type  2   force =    -0.00003099   -0.00002261   -0.00064853
     atom   51 type  2   force =    -0.00000775   -0.00000007   -0.00061765
     atom   52 type  2   force =     0.00003802    0.00011171   -0.00070121
     atom   53 type  2   force =    -0.00000826    0.00000030   -0.00061800
     atom   54 type  2   force =     0.00001262    0.00000133   -0.00061489

     Total force =     0.008172     Total SCF correction =     0.000036


     Computing stress (Cartesian axis) and pressure

          total   stress  (Ry/bohr**3)                   (kbar)     P=       18.64
   0.00015204   0.00000026  -0.00000086           22.37        0.04       -0.13
   0.00000026   0.00015204  -0.00000000            0.04       22.37       -0.00
  -0.00000086  -0.00000000   0.00007598           -0.13       -0.00       11.18


     Writing all to output data dir ./WSe.save/ :
     XML data file, charge density, pseudopotentials, collected wavefunctions
 
     init_run     :      9.80s CPU     11.46s WALL (       1 calls)
     electrons    :    782.39s CPU    944.30s WALL (       1 calls)
     forces       :      7.18s CPU      7.85s WALL (       1 calls)
     force_london :      0.04s CPU      0.04s WALL (       1 calls)
     stress       :    109.58s CPU    117.79s WALL (       1 calls)
     stres_london :      0.04s CPU      0.04s WALL (       1 calls)

     Called by init_run:
     wfcinit      :      9.00s CPU     10.56s WALL (       1 calls)
     potinit      :      0.06s CPU      0.08s WALL (       1 calls)
     hinit0       :      0.34s CPU      0.39s WALL (       1 calls)

     Called by electrons:
     c_bands      :    736.82s CPU    890.76s WALL (      27 calls)
     sum_band     :     43.36s CPU     50.72s WALL (      27 calls)
     v_of_rho     :      1.48s CPU      1.68s WALL (      27 calls)
     mix_rho      :      0.59s CPU      0.67s WALL (      27 calls)
     energy_londo :      0.04s CPU      0.04s WALL (       1 calls)

     Called by c_bands:
     init_us_2    :      9.78s CPU      9.87s WALL (     171 calls)
     init_us_2:cp :      9.77s CPU      9.87s WALL (     171 calls)
     cegterg      :    703.84s CPU    846.21s WALL (      81 calls)

     Called by *egterg:
     cdiaghg      :     47.52s CPU    121.11s WALL (     487 calls)
     h_psi        :    404.59s CPU    444.55s WALL (     493 calls)
     g_psi        :      1.72s CPU      1.77s WALL (     409 calls)

     Called by h_psi:
     h_psi:calbec :    105.47s CPU    112.10s WALL (     493 calls)
     vloc_psi     :    203.16s CPU    235.47s WALL (     493 calls)
     add_vuspsi   :     91.80s CPU     92.23s WALL (     493 calls)

     General routines
     calbec       :    112.88s CPU    124.49s WALL (     508 calls)
     fft          :      1.17s CPU      1.33s WALL (     295 calls)
     ffts         :      0.08s CPU      0.09s WALL (      27 calls)
     fftw         :    217.18s CPU    251.85s WALL (  210390 calls)
 
     Parallel routines
     fft_scatt_xy :     25.47s CPU     28.80s WALL (  210712 calls)
     fft_scatt_yz :    120.52s CPU    142.56s WALL (  210712 calls)
 
     PWSCF        :  15m11.16s CPU  18m10.11s WALL

 
   This run was terminated on:  18: 1:15   5Nov2024            

=------------------------------------------------------------------------------=
   JOB DONE.
=------------------------------------------------------------------------------=
