
     Program PWSCF v.7.3 starts on  5Nov2024 at 17:25:49 

     This program is part of the open-source Quantum ESPRESSO suite
     for quantum simulation of materials; please cite
         "P. Giannozzi et al., J. Phys.:Condens. Matter 21 395502 (2009);
         "P. Giannozzi et al., J. Phys.:Condens. Matter 29 465901 (2017);
         "P. Giannozzi et al., J. Chem. Phys. 152 154105 (2020);
          URL http://www.quantum-espresso.org", 
     in publications or presentations arising from this work. More details at
     http://www.quantum-espresso.org/quote

     Parallel version (MPI & OpenMP), running on     256 processor cores
     Number of MPI processes:               256
     Threads/MPI process:                     1

     MPI processes distributed on     1 nodes
     470372 MiB available memory on the printing compute node when the environment starts
 
     Waiting for input...
     Reading input from standard input

     Current dimensions of program PWSCF are:
     Max number of different atomic species (ntypx) = 10
     Max number of k-points (npk) =  40000
     Max angular momentum in pseudopotentials (lmaxx) =  4
 
     K-points division:     npool     =       4
     R & G space division:  proc/nbgrp/npool/nimage =      64
     Subspace diagonalization in iterative solution of the eigenvalue problem:
     one sub-group per band group will be used
     scalapack distributed-memory algorithm (size of sub-group:  4*  4 procs)

 
     Parallelization info
     --------------------
     sticks:   dense  smooth     PW     G-vecs:    dense   smooth      PW
     Min         120     120     31                10920    10920    1445
     Max         121     121     32                10929    10929    1450
     Sum        7705    7705   1993               699065   699065   92625
 
     Using Pencil Decomposition
 


     bravais-lattice index     =            0
     lattice parameter (alat)  =      18.6947  a.u.
     unit-cell volume          =    7229.8735 (a.u.)^3
     number of atoms/cell      =           54
     number of atomic types    =            2
     number of electrons       =       828.00
     number of Kohn-Sham states=          414
     kinetic-energy cutoff     =      80.0000  Ry
     charge density cutoff     =     320.0000  Ry
     scf convergence threshold =      1.0E-10
     mixing beta               =       0.5000
     number of iterations used =            8  plain     mixing
     Exchange-correlation= PBE
                           (   1   4   3   4   0   0   0)

     celldm(1)=  18.694680  celldm(2)=   0.000000  celldm(3)=   0.000000
     celldm(4)=   0.000000  celldm(5)=   0.000000  celldm(6)=   0.000000

     crystal axes: (cart. coord. in units of alat)
               a(1) = (   1.000000   0.000000   0.000000 )  
               a(2) = (  -0.500000   0.866025   0.000000 )  
               a(3) = (   0.000000   0.000000   1.277750 )  

     reciprocal axes: (cart. coord. in units 2 pi/alat)
               b(1) = (  1.000000  0.577350  0.000000 )  
               b(2) = (  0.000000  1.154701  0.000000 )  
               b(3) = (  0.000000  0.000000  0.782626 )  


     PseudoPot. # 1 for W  read from file:
     /users/rkarkee/pbe_pseudo/W.upf
     MD5 check sum: cb94e439a9e4ea809831d6e90c63864e
     Pseudo is Norm-conserving + core correction, Zval = 14.0
     Generated using ONCVPSP code by D. R. Hamann
     Using radial grid of 1396 points,  8 beta functions with: 
                l(1) =   0
                l(2) =   0
                l(3) =   1
                l(4) =   1
                l(5) =   2
                l(6) =   2
                l(7) =   3
                l(8) =   3

     PseudoPot. # 2 for Se read from file:
     /users/rkarkee/pbe_pseudo/Se.upf
     MD5 check sum: 3cc46b3642295b3f4fdae63b742ce36d
     Pseudo is Norm-conserving + core correction, Zval = 16.0
     Generated using ONCVPSP code by D. R. Hamann
     Using radial grid of 1214 points,  6 beta functions with: 
                l(1) =   0
                l(2) =   0
                l(3) =   1
                l(4) =   1
                l(5) =   2
                l(6) =   2

     atomic species   valence    mass     pseudopotential
     W                14.00   183.84000     W ( 1.00)
     Se               16.00    78.96000     Se( 1.00)

     No symmetry found



   Cartesian axes

     site n.     atom                  positions (alat units)
         1        W      tau(   1) = (  -0.0000000   0.1924501   0.9583127  )
         2        W      tau(   2) = (   0.3333333   0.1924501   0.9583127  )
         3        W      tau(   3) = (   0.6666667   0.1924501   0.9583127  )
         4        W      tau(   4) = (  -0.1666667   0.4811252   0.9583127  )
         5        W      tau(   5) = (   0.1666667   0.4811252   0.9583127  )
         6        W      tau(   6) = (   0.5000000   0.4811252   0.9583127  )
         7        W      tau(   7) = (  -0.3333333   0.7698004   0.9583127  )
         8        W      tau(   8) = (   0.0000000   0.7698004   0.9583127  )
         9        W      tau(   9) = (   0.3333333   0.7698004   0.9583127  )
        10        W      tau(  10) = (   0.1666667   0.0962250   0.3194376  )
        11        W      tau(  11) = (   0.5000000   0.0962250   0.3194376  )
        12        W      tau(  12) = (   0.8333333   0.0962250   0.3194376  )
        13        W      tau(  13) = (  -0.0000000   0.3849002   0.3194376  )
        14        W      tau(  14) = (   0.3333333   0.3849002   0.3194376  )
        15        W      tau(  15) = (   0.6666667   0.3849002   0.3194376  )
        16        W      tau(  16) = (  -0.1666667   0.6735753   0.3194376  )
        17        W      tau(  17) = (   0.1666667   0.6735753   0.3194376  )
        18        W      tau(  18) = (   0.5000000   0.6735753   0.3194376  )
        19        Se     tau(  19) = (   0.0006593   0.1924501   0.1511133  )
        20        Se     tau(  20) = (   0.3333333   0.1924501   0.1502708  )
        21        Se     tau(  21) = (   0.6666667   0.1924501   0.1502708  )
        22        Se     tau(  22) = (  -0.1666667   0.4811252   0.1502708  )
        23        Se     tau(  23) = (   0.1666667   0.4811252   0.1502708  )
        24        Se     tau(  24) = (   0.5000000   0.4811252   0.1502708  )
        25        Se     tau(  25) = (  -0.3333333   0.7698004   0.1502708  )
        26        Se     tau(  26) = (   0.0000000   0.7698004   0.1502708  )
        27        Se     tau(  27) = (   0.3333333   0.7698004   0.1502708  )
        28        Se     tau(  28) = (   0.1666667   0.0962250   1.1274795  )
        29        Se     tau(  29) = (   0.5000000   0.0962250   1.1274795  )
        30        Se     tau(  30) = (   0.8333333   0.0962250   1.1274795  )
        31        Se     tau(  31) = (  -0.0000000   0.3849002   1.1274795  )
        32        Se     tau(  32) = (   0.3333333   0.3849002   1.1274795  )
        33        Se     tau(  33) = (   0.6666667   0.3849002   1.1274795  )
        34        Se     tau(  34) = (  -0.1666667   0.6735753   1.1274795  )
        35        Se     tau(  35) = (   0.1666667   0.6735753   1.1274795  )
        36        Se     tau(  36) = (   0.5000000   0.6735753   1.1274795  )
        37        Se     tau(  37) = (   0.1666667   0.0962250   0.7891459  )
        38        Se     tau(  38) = (   0.5000000   0.0962250   0.7891459  )
        39        Se     tau(  39) = (   0.8333333   0.0962250   0.7891459  )
        40        Se     tau(  40) = (  -0.0000000   0.3849002   0.7891459  )
        41        Se     tau(  41) = (   0.3333333   0.3849002   0.7891459  )
        42        Se     tau(  42) = (   0.6666667   0.3849002   0.7891459  )
        43        Se     tau(  43) = (  -0.1666667   0.6735753   0.7891459  )
        44        Se     tau(  44) = (   0.1666667   0.6735753   0.7891459  )
        45        Se     tau(  45) = (   0.5000000   0.6735753   0.7891459  )
        46        Se     tau(  46) = (  -0.0000000   0.1924501   0.4886044  )
        47        Se     tau(  47) = (   0.3333333   0.1924501   0.4886044  )
        48        Se     tau(  48) = (   0.6666667   0.1924501   0.4886044  )
        49        Se     tau(  49) = (  -0.1666667   0.4811252   0.4886044  )
        50        Se     tau(  50) = (   0.1666667   0.4811252   0.4886044  )
        51        Se     tau(  51) = (   0.5000000   0.4811252   0.4886044  )
        52        Se     tau(  52) = (  -0.3333333   0.7698004   0.4886044  )
        53        Se     tau(  53) = (   0.0000000   0.7698004   0.4886044  )
        54        Se     tau(  54) = (   0.3333333   0.7698004   0.4886044  )

     -------------------------------------------------
     Parameters for Dispersion (Grimme-D2) Correction:
     -------------------------------------------------
       atom      VdW radius       C_6     

        W          3.349       2818.308
        Se         3.347        438.498

     number of k points=    12
                       cart. coord. in units 2pi/alat
        k(    1) = (   0.2500000   0.4330127   0.1956564), wk =   0.1666667
        k(    2) = (   0.2500000  -0.1443376   0.1956564), wk =   0.1666667
        k(    3) = (  -0.2500000  -0.4330127   0.1956564), wk =   0.1666667
        k(    4) = (  -0.2500000   0.4330127  -0.1956564), wk =   0.1666667
        k(    5) = (   0.2500000  -0.4330127  -0.1956564), wk =   0.1666667
        k(    6) = (   0.5000000  -0.0000000   0.1956564), wk =   0.1666667
        k(    7) = (  -0.5000000   0.0000000   0.1956564), wk =   0.1666667
        k(    8) = (  -0.2500000   0.1443376   0.1956564), wk =   0.1666667
        k(    9) = (  -0.2500000  -0.1443376  -0.1956564), wk =   0.1666667
        k(   10) = (   0.2500000   0.1443376  -0.1956564), wk =   0.1666667
        k(   11) = (   0.0000000  -0.2886751   0.1956564), wk =   0.1666667
        k(   12) = (  -0.0000000   0.2886751   0.1956564), wk =   0.1666667

     Dense  grid:   699065 G-vectors     FFT dimensions: ( 108, 108, 144)

     Estimated max dynamical RAM per process >     118.34 MB

     Estimated total dynamical RAM >      29.08 GB

     Initial potential from superposition of free atoms

     starting charge     827.9882, renormalised to     828.0000
     Starting wfcs are  504 randomized atomic wfcs

     total cpu time spent up to now is       12.3 secs

     Self-consistent Calculation

     iteration #  1     ecut=    80.00 Ry     beta= 0.50
     Davidson diagonalization with overlap
     ethr =  1.00E-02,  avg # of iterations =  2.0

     Threshold (ethr) on eigenvalues was too large:
     Diagonalizing with lowered threshold

     Davidson diagonalization with overlap
     ethr =  8.88E-05,  avg # of iterations =  5.5

     total cpu time spent up to now is       87.5 secs

     total energy              =  -11463.54692042 Ry
     estimated scf accuracy    <       1.19508229 Ry

     iteration #  2     ecut=    80.00 Ry     beta= 0.50
     Davidson diagonalization with overlap
     ethr =  1.44E-04,  avg # of iterations =  4.5

     total cpu time spent up to now is      119.0 secs

     total energy              =  -11463.65578774 Ry
     estimated scf accuracy    <       0.42522798 Ry

     iteration #  3     ecut=    80.00 Ry     beta= 0.50
     Davidson diagonalization with overlap
     ethr =  5.14E-05,  avg # of iterations =  6.0

     total cpu time spent up to now is      156.6 secs

     total energy              =  -11463.72890920 Ry
     estimated scf accuracy    <       0.21857457 Ry

     iteration #  4     ecut=    80.00 Ry     beta= 0.50
     Davidson diagonalization with overlap
     ethr =  2.64E-05,  avg # of iterations =  5.5

     total cpu time spent up to now is      189.5 secs

     total energy              =  -11463.76478456 Ry
     estimated scf accuracy    <       0.00589448 Ry

     iteration #  5     ecut=    80.00 Ry     beta= 0.50
     Davidson diagonalization with overlap
     ethr =  7.12E-07,  avg # of iterations =  9.0

     total cpu time spent up to now is      239.1 secs

     total energy              =  -11463.76796660 Ry
     estimated scf accuracy    <       0.01870580 Ry

     iteration #  6     ecut=    80.00 Ry     beta= 0.50
     Davidson diagonalization with overlap
     ethr =  7.12E-07,  avg # of iterations =  5.0

     total cpu time spent up to now is      270.7 secs

     total energy              =  -11463.76405740 Ry
     estimated scf accuracy    <       0.00861965 Ry

     iteration #  7     ecut=    80.00 Ry     beta= 0.50
     Davidson diagonalization with overlap
     ethr =  7.12E-07,  avg # of iterations =  7.8

     total cpu time spent up to now is      316.9 secs

     total energy              =  -11463.76748658 Ry
     estimated scf accuracy    <       0.01627438 Ry

     iteration #  8     ecut=    80.00 Ry     beta= 0.50
     Davidson diagonalization with overlap
     ethr =  7.12E-07,  avg # of iterations =  5.0

     total cpu time spent up to now is      348.6 secs

     total energy              =  -11463.76671795 Ry
     estimated scf accuracy    <       0.00561104 Ry

     iteration #  9     ecut=    80.00 Ry     beta= 0.50
     Davidson diagonalization with overlap
     ethr =  6.78E-07,  avg # of iterations =  5.4

     total cpu time spent up to now is      383.4 secs

     total energy              =  -11463.76768662 Ry
     estimated scf accuracy    <       0.00003523 Ry

     iteration # 10     ecut=    80.00 Ry     beta= 0.50
     Davidson diagonalization with overlap
     ethr =  4.25E-09,  avg # of iterations =  7.6

     total cpu time spent up to now is      429.6 secs

     total energy              =  -11463.76773367 Ry
     estimated scf accuracy    <       0.00001572 Ry

     iteration # 11     ecut=    80.00 Ry     beta= 0.50
     Davidson diagonalization with overlap
     ethr =  1.90E-09,  avg # of iterations =  6.6

     total cpu time spent up to now is      469.2 secs

     total energy              =  -11463.76773749 Ry
     estimated scf accuracy    <       0.00001654 Ry

     iteration # 12     ecut=    80.00 Ry     beta= 0.50
     Davidson diagonalization with overlap
     ethr =  1.90E-09,  avg # of iterations =  5.5

     total cpu time spent up to now is      498.7 secs

     total energy              =  -11463.76773604 Ry
     estimated scf accuracy    <       0.00000663 Ry

     iteration # 13     ecut=    80.00 Ry     beta= 0.50
     Davidson diagonalization with overlap
     ethr =  8.00E-10,  avg # of iterations =  6.5

     total cpu time spent up to now is      539.6 secs

     total energy              =  -11463.76773798 Ry
     estimated scf accuracy    <       0.00000478 Ry

     iteration # 14     ecut=    80.00 Ry     beta= 0.50
     Davidson diagonalization with overlap
     ethr =  5.78E-10,  avg # of iterations =  2.0

     total cpu time spent up to now is      565.4 secs

     total energy              =  -11463.76773753 Ry
     estimated scf accuracy    <       0.00000249 Ry

     iteration # 15     ecut=    80.00 Ry     beta= 0.50
     Davidson diagonalization with overlap
     ethr =  3.00E-10,  avg # of iterations =  6.5

     total cpu time spent up to now is      602.2 secs

     total energy              =  -11463.76773802 Ry
     estimated scf accuracy    <       0.00000031 Ry

     iteration # 16     ecut=    80.00 Ry     beta= 0.50
     Davidson diagonalization with overlap
     ethr =  3.74E-11,  avg # of iterations =  6.0

     total cpu time spent up to now is      636.7 secs

     total energy              =  -11463.76773798 Ry
     estimated scf accuracy    <       0.00000047 Ry

     iteration # 17     ecut=    80.00 Ry     beta= 0.50
     Davidson diagonalization with overlap
     ethr =  3.74E-11,  avg # of iterations =  3.0

     total cpu time spent up to now is      665.5 secs

     total energy              =  -11463.76773798 Ry
     estimated scf accuracy    <       0.00000019 Ry

     iteration # 18     ecut=    80.00 Ry     beta= 0.50
     Davidson diagonalization with overlap
     ethr =  2.34E-11,  avg # of iterations =  6.5

     total cpu time spent up to now is      698.6 secs

     total energy              =  -11463.76773800 Ry
     estimated scf accuracy    <          9.5E-09 Ry

     iteration # 19     ecut=    80.00 Ry     beta= 0.50
     Davidson diagonalization with overlap
     ethr =  1.14E-12,  avg # of iterations =  6.0

     total cpu time spent up to now is      741.3 secs

     total energy              =  -11463.76773800 Ry
     estimated scf accuracy    <          9.9E-09 Ry

     iteration # 20     ecut=    80.00 Ry     beta= 0.50
     Davidson diagonalization with overlap
     ethr =  1.14E-12,  avg # of iterations =  2.0

     total cpu time spent up to now is      767.6 secs

     total energy              =  -11463.76773800 Ry
     estimated scf accuracy    <          6.5E-09 Ry

     iteration # 21     ecut=    80.00 Ry     beta= 0.50
     Davidson diagonalization with overlap
     ethr =  7.81E-13,  avg # of iterations =  6.5

     total cpu time spent up to now is      802.9 secs

     total energy              =  -11463.76773800 Ry
     estimated scf accuracy    <          1.4E-09 Ry

     iteration # 22     ecut=    80.00 Ry     beta= 0.50
     Davidson diagonalization with overlap
     ethr =  1.73E-13,  avg # of iterations =  5.6

     total cpu time spent up to now is      833.8 secs

     total energy              =  -11463.76773800 Ry
     estimated scf accuracy    <          5.4E-10 Ry

     iteration # 23     ecut=    80.00 Ry     beta= 0.50
     Davidson diagonalization with overlap
     ethr =  1.00E-13,  avg # of iterations =  6.0

     total cpu time spent up to now is      865.8 secs

     total energy              =  -11463.76773800 Ry
     estimated scf accuracy    <          1.5E-10 Ry

     iteration # 24     ecut=    80.00 Ry     beta= 0.50
     Davidson diagonalization with overlap
     ethr =  1.00E-13,  avg # of iterations =  2.0

     total cpu time spent up to now is      891.3 secs

     End of self-consistent calculation

          k = 0.2500 0.4330 0.1957 ( 87350 PWs)   bands (ev):

   -60.5762 -60.5760 -60.5743 -60.5739 -60.5738 -60.5737 -60.5701 -60.5697
   -60.5696 -60.5696 -60.5687 -60.5683 -60.5681 -60.5681 -60.5681 -60.5677
   -60.5675 -60.5669 -34.1679 -34.1678 -34.1655 -34.1653 -34.1651 -34.1651
   -34.1650 -34.1650 -34.1649 -34.1648 -34.1648 -34.1648 -34.1648 -34.1646
   -34.1646 -34.1645 -34.1644 -34.1644 -34.1644 -34.1643 -34.1643 -34.1643
   -34.1643 -34.1643 -34.1642 -34.1642 -34.1641 -34.1641 -34.1639 -34.1639
   -34.1639 -34.1638 -34.1638 -34.1637 -34.1636 -34.1636 -34.1636 -34.1635
   -34.1634 -34.1633 -34.1632 -34.1632 -34.1630 -34.1630 -34.1630 -34.1629
   -34.1625 -34.1625 -34.1623 -34.1620 -34.1619 -34.1618 -34.1617 -34.1616
   -34.1615 -34.1615 -34.1613 -34.1613 -34.1613 -34.1612 -34.1612 -34.1611
   -34.1611 -34.1609 -34.1608 -34.1607 -34.1606 -34.1606 -34.1605 -34.1605
   -34.1602 -34.1601 -34.1342 -34.1338 -34.1324 -34.1323 -34.1321 -34.1321
   -34.1320 -34.1319 -34.1318 -34.1317 -34.1317 -34.1316 -34.1315 -34.1315
   -34.1314 -34.1314 -34.1313 -34.1313 -34.1313 -34.1312 -34.1312 -34.1312
   -34.1312 -34.1311 -34.1311 -34.1311 -34.1310 -34.1310 -34.1309 -34.1309
   -34.1309 -34.1308 -34.1308 -34.1307 -34.1307 -34.1306 -34.1306 -34.1305
   -34.1305 -34.1305 -34.1304 -34.1304 -34.1303 -34.1303 -34.1302 -34.1302
   -34.1302 -34.1302 -34.1301 -34.1301 -34.1301 -34.1300 -34.1300 -34.1299
   -34.1299 -34.1299 -34.1298 -34.1298 -34.1297 -34.1296 -34.1296 -34.1295
   -34.1295 -34.1294 -34.1294 -34.1293 -34.1293 -34.1292 -34.1292 -34.1290
   -34.1289 -34.1288 -34.1178 -34.1169 -34.1167 -34.1165 -34.1162 -34.1161
   -34.1160 -34.1158 -34.1157 -34.1156 -34.1154 -34.1153 -34.1153 -34.1152
   -34.1150 -34.1149 -34.1148 -34.1148 -34.1147 -34.1145 -34.1143 -34.1142
   -34.1138 -34.1137 -34.1135 -34.1133 -34.1132 -34.1131 -34.1129 -34.1129
   -34.1128 -34.1127 -34.1125 -34.1125 -34.1124 -34.1122 -24.9083 -24.9081
   -24.9078 -24.9078 -24.8981 -24.8976 -24.8748 -24.8744 -24.8610 -24.8608
   -24.8604 -24.8604 -24.8043 -24.8040 -24.7943 -24.7938 -24.7938 -24.7938
   -24.7861 -24.7856 -24.7812 -24.7810 -24.7806 -24.7806 -24.7785 -24.7782
   -24.7738 -24.7733 -24.7733 -24.7733 -24.7665 -24.7661 -24.7658 -24.7658
   -24.7658 -24.7656 -24.7633 -24.7631 -24.7560 -24.7558 -24.7555 -24.7555
   -24.7520 -24.7518 -24.7515 -24.7515 -24.7336 -24.7332 -24.7149 -24.7147
   -24.7144 -24.7144 -24.7013 -24.7009  -1.2055  -0.9761  -0.8290  -0.8277
    -0.6096  -0.6080  -0.1278   0.0797   0.0810   0.0821   0.0828   0.2327
     0.2450   0.2463   0.4009   0.4018   0.4926   0.5312   0.5326   0.5818
     0.5827   0.6087   0.6341   0.6354   0.6893   0.7658   0.7785   0.7795
     0.8047   0.8073   0.8079   0.8947   0.9089   0.9095   0.9303   0.9673
     7.0750   7.0866   7.0875   7.3166   7.3488   7.3498   7.5179   7.5188
     7.5484   7.8375   7.9131   7.9413   7.9423   7.9692   8.1505   8.1513
     8.1552   8.1951   8.2010   8.2018   8.2787   8.2791   8.3473   8.3484
     8.3882   8.5415   8.7028   8.7039   8.8024   8.8034   9.0012   9.0023
     9.0633   9.1152   9.1165   9.1862   9.2582   9.3751   9.3757   9.4369
     9.4370   9.5129   9.5153   9.5159   9.5855   9.5870   9.8199   9.8616
     9.8625   9.9449   9.9453  10.0834  10.0985  10.1408  10.2291  10.2493
    10.2863  10.3135  10.3145  10.3446  10.3844  10.3855  10.4064  10.4073
    10.4626  10.4795  10.4797  10.5953  10.8907  10.9281  10.9292  10.9328
    10.9341  11.0496  11.0512  11.1021  11.1030  11.1398  11.1799  11.1811
    11.1843  11.3654  11.3898  11.3907  11.4064  11.4073  11.4908  11.5825
    11.5999  11.6005  11.6430  11.6437  11.6453  11.6460  11.6723  11.6847
    11.7497  11.7503  11.8208  11.8215  11.9004  11.9016  12.0744  12.0764
    12.2050  12.4042  12.4054  12.4881  12.7259  12.7264  12.7297  12.7306
    12.7666  12.7676  12.7802  12.7805  12.7816  12.7818  12.8813  12.9318
    12.9327  12.9445  13.0096  13.1628  13.1861  13.2957

          k = 0.2500-0.1443 0.1957 ( 87383 PWs)   bands (ev):

   -60.5774 -60.5772 -60.5732 -60.5730 -60.5718 -60.5714 -60.5714 -60.5714
   -60.5696 -60.5695 -60.5693 -60.5693 -60.5687 -60.5687 -60.5673 -60.5672
   -60.5672 -60.5667 -34.1679 -34.1679 -34.1656 -34.1654 -34.1653 -34.1652
   -34.1651 -34.1651 -34.1650 -34.1650 -34.1649 -34.1648 -34.1647 -34.1647
   -34.1647 -34.1647 -34.1646 -34.1646 -34.1646 -34.1645 -34.1645 -34.1645
   -34.1644 -34.1643 -34.1643 -34.1642 -34.1641 -34.1641 -34.1641 -34.1640
   -34.1639 -34.1639 -34.1638 -34.1638 -34.1635 -34.1634 -34.1634 -34.1633
   -34.1631 -34.1628 -34.1627 -34.1626 -34.1625 -34.1625 -34.1624 -34.1623
   -34.1621 -34.1620 -34.1619 -34.1619 -34.1619 -34.1618 -34.1617 -34.1616
   -34.1616 -34.1615 -34.1615 -34.1614 -34.1613 -34.1612 -34.1612 -34.1612
   -34.1611 -34.1611 -34.1610 -34.1610 -34.1610 -34.1607 -34.1607 -34.1607
   -34.1606 -34.1602 -34.1342 -34.1338 -34.1325 -34.1324 -34.1320 -34.1319
   -34.1318 -34.1318 -34.1318 -34.1317 -34.1317 -34.1316 -34.1316 -34.1315
   -34.1314 -34.1313 -34.1313 -34.1312 -34.1312 -34.1312 -34.1311 -34.1311
   -34.1311 -34.1311 -34.1311 -34.1310 -34.1310 -34.1310 -34.1309 -34.1309
   -34.1309 -34.1308 -34.1308 -34.1307 -34.1307 -34.1307 -34.1307 -34.1306
   -34.1305 -34.1305 -34.1305 -34.1304 -34.1304 -34.1304 -34.1304 -34.1303
   -34.1303 -34.1303 -34.1302 -34.1301 -34.1301 -34.1300 -34.1300 -34.1299
   -34.1299 -34.1299 -34.1298 -34.1298 -34.1297 -34.1297 -34.1296 -34.1296
   -34.1294 -34.1294 -34.1292 -34.1292 -34.1291 -34.1291 -34.1290 -34.1290
   -34.1289 -34.1288 -34.1179 -34.1170 -34.1167 -34.1164 -34.1161 -34.1160
   -34.1159 -34.1157 -34.1156 -34.1156 -34.1155 -34.1155 -34.1152 -34.1152
   -34.1151 -34.1150 -34.1150 -34.1148 -34.1147 -34.1145 -34.1142 -34.1140
   -34.1137 -34.1136 -34.1134 -34.1132 -34.1132 -34.1132 -34.1131 -34.1129
   -34.1128 -34.1127 -34.1126 -34.1126 -34.1123 -34.1122 -24.9017 -24.9012
   -24.8818 -24.8814 -24.8812 -24.8812 -24.8779 -24.8775 -24.8773 -24.8773
   -24.8354 -24.8350 -24.8348 -24.8348 -24.8102 -24.8099 -24.8087 -24.8085
   -24.8082 -24.8082 -24.8046 -24.8041 -24.7897 -24.7895 -24.7823 -24.7822
   -24.7820 -24.7820 -24.7720 -24.7720 -24.7717 -24.7717 -24.7692 -24.7690
   -24.7617 -24.7617 -24.7615 -24.7615 -24.7442 -24.7440 -24.7437 -24.7437
   -24.7398 -24.7395 -24.7306 -24.7305 -24.7301 -24.7301 -24.7169 -24.7165
   -24.7057 -24.7053 -24.6938 -24.6934  -1.4072  -1.1744  -0.6547  -0.4419
    -0.3340  -0.3326  -0.2404  -0.1375  -0.1360   0.1405   0.1755   0.1769
     0.1780   0.3291   0.3306   0.3428   0.3548   0.3553   0.4740   0.4758
     0.6111   0.6118   0.6277   0.6283   0.7095   0.7736   0.7749   0.8037
     0.8045   0.8354   0.8368   0.8502   0.9453   0.9460   1.0064   1.0072
     6.8241   7.1797   7.4502   7.5350   7.5354   7.6785   7.7369   7.7628
     7.7636   7.7995   7.8000   7.8882   7.8890   7.9132   7.9141   8.0708
     8.0715   8.2247   8.2259   8.3022   8.4074   8.4130   8.4335   8.4338
     8.5061   8.5064   8.5590   8.5593   8.6645   8.6660   8.9006   8.9012
     8.9889   9.0295   9.0302   9.0723   9.1919   9.1924   9.1974   9.3811
     9.3827   9.5473   9.5484   9.5506   9.5512   9.5766   9.5773   9.5878
     9.6187   9.6192   9.6780   9.7843   9.7853  10.0662  10.2007  10.2019
    10.3214  10.3230  10.3245  10.3341  10.3353  10.4862  10.4865  10.4930
    10.5152  10.5161  10.5928  10.7392  10.7409  10.7776  10.8074  11.1363
    11.1453  11.1508  11.1512  11.1964  11.2219  11.2240  11.3862  11.3873
    11.4354  11.4359  11.4571  11.4625  11.4631  11.5542  11.6281  11.6295
    11.6300  11.6661  11.6674  11.7002  11.7007  11.7858  11.7863  11.8017
    11.8023  11.8218  11.9093  12.0281  12.0497  12.0501  12.0923  12.1063
    12.2114  12.2124  12.3342  12.3988  12.4403  12.5112  12.5499  12.5501
    12.5519  12.5790  12.5794  12.5850  12.6359  12.6365  12.7179  12.7182
    13.1201  13.1202  13.3288  13.3289  13.3526  13.6535

          k =-0.2500-0.4330 0.1957 ( 87350 PWs)   bands (ev):

   -60.5762 -60.5760 -60.5743 -60.5739 -60.5738 -60.5737 -60.5701 -60.5697
   -60.5696 -60.5696 -60.5687 -60.5683 -60.5681 -60.5681 -60.5681 -60.5677
   -60.5675 -60.5669 -34.1679 -34.1678 -34.1655 -34.1653 -34.1651 -34.1651
   -34.1650 -34.1650 -34.1649 -34.1648 -34.1648 -34.1648 -34.1648 -34.1646
   -34.1646 -34.1645 -34.1644 -34.1644 -34.1644 -34.1643 -34.1643 -34.1643
   -34.1643 -34.1643 -34.1642 -34.1642 -34.1641 -34.1641 -34.1639 -34.1639
   -34.1638 -34.1638 -34.1638 -34.1637 -34.1636 -34.1636 -34.1636 -34.1635
   -34.1634 -34.1633 -34.1632 -34.1632 -34.1630 -34.1630 -34.1630 -34.1629
   -34.1625 -34.1625 -34.1623 -34.1620 -34.1619 -34.1618 -34.1617 -34.1616
   -34.1615 -34.1615 -34.1613 -34.1613 -34.1613 -34.1612 -34.1612 -34.1611
   -34.1611 -34.1609 -34.1608 -34.1607 -34.1606 -34.1606 -34.1605 -34.1605
   -34.1602 -34.1601 -34.1342 -34.1338 -34.1324 -34.1323 -34.1321 -34.1321
   -34.1320 -34.1319 -34.1318 -34.1317 -34.1316 -34.1316 -34.1316 -34.1315
   -34.1314 -34.1314 -34.1313 -34.1313 -34.1313 -34.1312 -34.1312 -34.1312
   -34.1312 -34.1311 -34.1311 -34.1310 -34.1310 -34.1310 -34.1310 -34.1309
   -34.1309 -34.1308 -34.1308 -34.1307 -34.1307 -34.1306 -34.1306 -34.1305
   -34.1305 -34.1305 -34.1304 -34.1304 -34.1303 -34.1303 -34.1302 -34.1302
   -34.1302 -34.1302 -34.1301 -34.1301 -34.1301 -34.1300 -34.1300 -34.1300
   -34.1299 -34.1299 -34.1298 -34.1298 -34.1298 -34.1296 -34.1296 -34.1295
   -34.1295 -34.1294 -34.1293 -34.1293 -34.1293 -34.1292 -34.1292 -34.1290
   -34.1289 -34.1288 -34.1178 -34.1169 -34.1167 -34.1164 -34.1162 -34.1161
   -34.1160 -34.1158 -34.1157 -34.1156 -34.1154 -34.1153 -34.1152 -34.1152
   -34.1150 -34.1149 -34.1148 -34.1148 -34.1147 -34.1145 -34.1143 -34.1142
   -34.1138 -34.1137 -34.1135 -34.1133 -34.1132 -34.1131 -34.1129 -34.1128
   -34.1128 -34.1127 -34.1125 -34.1125 -34.1124 -34.1122 -24.9083 -24.9081
   -24.9078 -24.9078 -24.8981 -24.8976 -24.8748 -24.8744 -24.8610 -24.8608
   -24.8604 -24.8604 -24.8043 -24.8040 -24.7943 -24.7938 -24.7938 -24.7938
   -24.7861 -24.7856 -24.7812 -24.7810 -24.7806 -24.7806 -24.7785 -24.7782
   -24.7738 -24.7733 -24.7733 -24.7733 -24.7665 -24.7661 -24.7658 -24.7658
   -24.7658 -24.7656 -24.7633 -24.7631 -24.7560 -24.7558 -24.7555 -24.7555
   -24.7520 -24.7518 -24.7515 -24.7515 -24.7336 -24.7332 -24.7149 -24.7147
   -24.7144 -24.7144 -24.7013 -24.7009  -1.2055  -0.9761  -0.8290  -0.8277
    -0.6096  -0.6080  -0.1278   0.0795   0.0809   0.0821   0.0829   0.2327
     0.2450   0.2463   0.4009   0.4018   0.4926   0.5312   0.5326   0.5818
     0.5827   0.6087   0.6341   0.6354   0.6893   0.7658   0.7785   0.7795
     0.8047   0.8074   0.8079   0.8947   0.9089   0.9095   0.9303   0.9673
     7.0750   7.0866   7.0875   7.3166   7.3488   7.3498   7.5179   7.5187
     7.5484   7.8375   7.9132   7.9413   7.9423   7.9692   8.1505   8.1513
     8.1552   8.1951   8.2010   8.2018   8.2786   8.2792   8.3475   8.3484
     8.3882   8.5415   8.7028   8.7039   8.8025   8.8033   9.0012   9.0024
     9.0632   9.1152   9.1166   9.1861   9.2584   9.3751   9.3755   9.4369
     9.4370   9.5132   9.5154   9.5157   9.5855   9.5869   9.8197   9.8618
     9.8622   9.9450   9.9454  10.0831  10.0985  10.1408  10.2292  10.2493
    10.2863  10.3138  10.3144  10.3448  10.3843  10.3855  10.4064  10.4072
    10.4625  10.4795  10.4798  10.5954  10.8906  10.9280  10.9292  10.9328
    10.9341  11.0498  11.0512  11.1022  11.1029  11.1399  11.1800  11.1810
    11.1842  11.3654  11.3899  11.3908  11.4065  11.4073  11.4907  11.5825
    11.5998  11.6004  11.6430  11.6438  11.6453  11.6459  11.6723  11.6845
    11.7496  11.7502  11.8208  11.8215  11.9004  11.9018  12.0743  12.0764
    12.2050  12.4041  12.4055  12.4884  12.7260  12.7264  12.7296  12.7308
    12.7666  12.7676  12.7803  12.7805  12.7815  12.7818  12.8813  12.9318
    12.9327  12.9445  13.0097  13.1626  13.1861  13.2957

          k =-0.2500 0.4330-0.1957 ( 87350 PWs)   bands (ev):

   -60.5762 -60.5760 -60.5744 -60.5739 -60.5738 -60.5736 -60.5701 -60.5696
   -60.5696 -60.5696 -60.5687 -60.5684 -60.5681 -60.5681 -60.5681 -60.5676
   -60.5675 -60.5669 -34.1679 -34.1679 -34.1655 -34.1653 -34.1651 -34.1651
   -34.1650 -34.1650 -34.1649 -34.1648 -34.1648 -34.1648 -34.1647 -34.1646
   -34.1646 -34.1645 -34.1644 -34.1644 -34.1644 -34.1644 -34.1643 -34.1643
   -34.1643 -34.1643 -34.1642 -34.1642 -34.1641 -34.1641 -34.1639 -34.1639
   -34.1638 -34.1638 -34.1638 -34.1637 -34.1636 -34.1636 -34.1636 -34.1635
   -34.1634 -34.1634 -34.1632 -34.1632 -34.1630 -34.1630 -34.1630 -34.1629
   -34.1625 -34.1625 -34.1623 -34.1620 -34.1620 -34.1618 -34.1617 -34.1616
   -34.1615 -34.1615 -34.1613 -34.1613 -34.1612 -34.1612 -34.1612 -34.1611
   -34.1611 -34.1609 -34.1608 -34.1607 -34.1606 -34.1606 -34.1605 -34.1605
   -34.1602 -34.1602 -34.1342 -34.1338 -34.1323 -34.1323 -34.1321 -34.1321
   -34.1320 -34.1319 -34.1319 -34.1317 -34.1316 -34.1316 -34.1315 -34.1315
   -34.1314 -34.1314 -34.1313 -34.1313 -34.1313 -34.1312 -34.1312 -34.1312
   -34.1312 -34.1311 -34.1311 -34.1310 -34.1310 -34.1310 -34.1309 -34.1309
   -34.1309 -34.1308 -34.1308 -34.1307 -34.1307 -34.1307 -34.1306 -34.1305
   -34.1305 -34.1305 -34.1304 -34.1304 -34.1303 -34.1303 -34.1302 -34.1302
   -34.1302 -34.1302 -34.1301 -34.1301 -34.1301 -34.1301 -34.1300 -34.1299
   -34.1299 -34.1299 -34.1298 -34.1298 -34.1297 -34.1296 -34.1296 -34.1295
   -34.1295 -34.1294 -34.1294 -34.1293 -34.1293 -34.1292 -34.1292 -34.1290
   -34.1289 -34.1288 -34.1178 -34.1169 -34.1167 -34.1164 -34.1162 -34.1161
   -34.1160 -34.1159 -34.1156 -34.1156 -34.1154 -34.1153 -34.1152 -34.1152
   -34.1150 -34.1149 -34.1148 -34.1148 -34.1147 -34.1145 -34.1143 -34.1142
   -34.1138 -34.1137 -34.1135 -34.1133 -34.1132 -34.1131 -34.1129 -34.1129
   -34.1128 -34.1127 -34.1125 -34.1125 -34.1124 -34.1122 -24.9084 -24.9082
   -24.9078 -24.9078 -24.8980 -24.8976 -24.8749 -24.8744 -24.8611 -24.8605
   -24.8604 -24.8604 -24.8043 -24.8040 -24.7943 -24.7939 -24.7938 -24.7938
   -24.7860 -24.7856 -24.7813 -24.7809 -24.7806 -24.7806 -24.7786 -24.7782
   -24.7738 -24.7734 -24.7733 -24.7733 -24.7665 -24.7660 -24.7658 -24.7658
   -24.7658 -24.7657 -24.7633 -24.7631 -24.7560 -24.7559 -24.7555 -24.7555
   -24.7521 -24.7516 -24.7515 -24.7515 -24.7337 -24.7332 -24.7150 -24.7147
   -24.7144 -24.7144 -24.7012 -24.7009  -1.2055  -0.9760  -0.8290  -0.8276
    -0.6096  -0.6080  -0.1278   0.0794   0.0809   0.0821   0.0828   0.2326
     0.2449   0.2464   0.4010   0.4018   0.4927   0.5316   0.5325   0.5820
     0.5826   0.6087   0.6343   0.6353   0.6891   0.7656   0.7788   0.7795
     0.8045   0.8072   0.8079   0.8948   0.9086   0.9095   0.9301   0.9676
     7.0750   7.0867   7.0872   7.3169   7.3488   7.3494   7.5180   7.5187
     7.5488   7.8374   7.9130   7.9415   7.9422   7.9693   8.1506   8.1514
     8.1550   8.1950   8.2011   8.2018   8.2789   8.2793   8.3474   8.3484
     8.3886   8.5418   8.7028   8.7035   8.8026   8.8034   9.0018   9.0023
     9.0627   9.1147   9.1164   9.1864   9.2581   9.3745   9.3757   9.4367
     9.4371   9.5126   9.5151   9.5160   9.5861   9.5867   9.8195   9.8617
     9.8624   9.9444   9.9457  10.0831  10.0984  10.1404  10.2289  10.2494
    10.2865  10.3135  10.3144  10.3447  10.3850  10.3855  10.4063  10.4073
    10.4630  10.4786  10.4802  10.5952  10.8907  10.9285  10.9290  10.9327
    10.9343  11.0501  11.0509  11.1021  11.1033  11.1405  11.1798  11.1806
    11.1836  11.3651  11.3897  11.3904  11.4064  11.4070  11.4910  11.5835
    11.5999  11.6004  11.6429  11.6437  11.6455  11.6459  11.6732  11.6847
    11.7495  11.7510  11.8208  11.8218  11.9006  11.9012  12.0748  12.0762
    12.2046  12.4043  12.4051  12.4881  12.7259  12.7266  12.7294  12.7303
    12.7666  12.7677  12.7803  12.7809  12.7815  12.7821  12.8813  12.9316
    12.9327  12.9447  13.0096  13.1627  13.1862  13.2953

          k = 0.2500-0.4330-0.1957 ( 87350 PWs)   bands (ev):

   -60.5762 -60.5760 -60.5744 -60.5739 -60.5738 -60.5736 -60.5701 -60.5696
   -60.5696 -60.5696 -60.5687 -60.5684 -60.5681 -60.5681 -60.5681 -60.5676
   -60.5675 -60.5669 -34.1679 -34.1679 -34.1655 -34.1653 -34.1651 -34.1651
   -34.1650 -34.1650 -34.1649 -34.1648 -34.1648 -34.1648 -34.1647 -34.1646
   -34.1646 -34.1645 -34.1644 -34.1644 -34.1644 -34.1644 -34.1643 -34.1643
   -34.1643 -34.1643 -34.1642 -34.1642 -34.1641 -34.1641 -34.1639 -34.1639
   -34.1638 -34.1638 -34.1638 -34.1637 -34.1636 -34.1636 -34.1636 -34.1635
   -34.1634 -34.1634 -34.1632 -34.1632 -34.1630 -34.1630 -34.1630 -34.1629
   -34.1625 -34.1625 -34.1623 -34.1620 -34.1620 -34.1618 -34.1617 -34.1616
   -34.1615 -34.1615 -34.1613 -34.1613 -34.1612 -34.1612 -34.1612 -34.1611
   -34.1611 -34.1609 -34.1608 -34.1607 -34.1606 -34.1606 -34.1605 -34.1605
   -34.1602 -34.1602 -34.1342 -34.1338 -34.1323 -34.1323 -34.1321 -34.1321
   -34.1320 -34.1319 -34.1319 -34.1317 -34.1316 -34.1316 -34.1315 -34.1315
   -34.1314 -34.1314 -34.1314 -34.1313 -34.1313 -34.1313 -34.1312 -34.1312
   -34.1311 -34.1311 -34.1311 -34.1310 -34.1310 -34.1310 -34.1309 -34.1309
   -34.1309 -34.1308 -34.1307 -34.1307 -34.1307 -34.1306 -34.1306 -34.1305
   -34.1305 -34.1305 -34.1304 -34.1304 -34.1303 -34.1303 -34.1302 -34.1302
   -34.1302 -34.1302 -34.1301 -34.1301 -34.1301 -34.1301 -34.1300 -34.1299
   -34.1299 -34.1298 -34.1298 -34.1298 -34.1297 -34.1296 -34.1296 -34.1295
   -34.1295 -34.1294 -34.1294 -34.1293 -34.1293 -34.1292 -34.1292 -34.1290
   -34.1289 -34.1288 -34.1178 -34.1169 -34.1167 -34.1164 -34.1162 -34.1161
   -34.1160 -34.1159 -34.1156 -34.1156 -34.1154 -34.1153 -34.1152 -34.1152
   -34.1150 -34.1149 -34.1148 -34.1148 -34.1147 -34.1145 -34.1143 -34.1142
   -34.1138 -34.1137 -34.1135 -34.1133 -34.1132 -34.1131 -34.1129 -34.1128
   -34.1128 -34.1127 -34.1125 -34.1125 -34.1124 -34.1122 -24.9084 -24.9082
   -24.9078 -24.9078 -24.8980 -24.8976 -24.8749 -24.8744 -24.8611 -24.8605
   -24.8604 -24.8604 -24.8043 -24.8040 -24.7943 -24.7939 -24.7938 -24.7938
   -24.7860 -24.7856 -24.7813 -24.7809 -24.7806 -24.7806 -24.7786 -24.7782
   -24.7738 -24.7734 -24.7733 -24.7733 -24.7665 -24.7660 -24.7658 -24.7658
   -24.7658 -24.7657 -24.7633 -24.7631 -24.7560 -24.7559 -24.7555 -24.7555
   -24.7521 -24.7516 -24.7515 -24.7515 -24.7337 -24.7332 -24.7150 -24.7147
   -24.7144 -24.7144 -24.7012 -24.7009  -1.2055  -0.9760  -0.8290  -0.8277
    -0.6096  -0.6080  -0.1278   0.0793   0.0809   0.0821   0.0829   0.2326
     0.2449   0.2463   0.4010   0.4018   0.4927   0.5316   0.5325   0.5820
     0.5827   0.6087   0.6343   0.6353   0.6890   0.7657   0.7788   0.7795
     0.8045   0.8073   0.8079   0.8948   0.9085   0.9095   0.9301   0.9676
     7.0750   7.0867   7.0872   7.3169   7.3488   7.3495   7.5180   7.5187
     7.5487   7.8374   7.9131   7.9415   7.9422   7.9692   8.1506   8.1514
     8.1550   8.1950   8.2011   8.2018   8.2788   8.2794   8.3475   8.3484
     8.3886   8.5417   8.7028   8.7036   8.8026   8.8033   9.0019   9.0022
     9.0626   9.1147   9.1164   9.1863   9.2583   9.3744   9.3757   9.4367
     9.4371   9.5129   9.5150   9.5159   9.5860   9.5866   9.8193   9.8616
     9.8625   9.9447   9.9456  10.0828  10.0984  10.1405  10.2291  10.2495
    10.2865  10.3138  10.3144  10.3449  10.3848  10.3855  10.4061  10.4074
    10.4628  10.4787  10.4802  10.5953  10.8905  10.9284  10.9290  10.9325
    10.9343  11.0503  11.0509  11.1022  11.1033  11.1407  11.1800  11.1804
    11.1834  11.3651  11.3899  11.3904  11.4062  11.4073  11.4909  11.5835
    11.5999  11.6003  11.6429  11.6438  11.6455  11.6459  11.6732  11.6845
    11.7495  11.7508  11.8208  11.8218  11.9007  11.9013  12.0747  12.0761
    12.2045  12.4042  12.4052  12.4883  12.7260  12.7265  12.7293  12.7305
    12.7669  12.7675  12.7803  12.7808  12.7815  12.7821  12.8813  12.9317
    12.9326  12.9448  13.0096  13.1625  13.1862  13.2954

          k = 0.5000-0.0000 0.1957 ( 87350 PWs)   bands (ev):

   -60.5762 -60.5760 -60.5743 -60.5739 -60.5738 -60.5737 -60.5701 -60.5697
   -60.5696 -60.5696 -60.5687 -60.5683 -60.5681 -60.5681 -60.5681 -60.5677
   -60.5675 -60.5669 -34.1679 -34.1679 -34.1655 -34.1654 -34.1651 -34.1650
   -34.1650 -34.1649 -34.1648 -34.1648 -34.1648 -34.1648 -34.1648 -34.1646
   -34.1646 -34.1645 -34.1644 -34.1644 -34.1644 -34.1643 -34.1643 -34.1643
   -34.1643 -34.1643 -34.1642 -34.1642 -34.1641 -34.1641 -34.1640 -34.1639
   -34.1638 -34.1638 -34.1638 -34.1637 -34.1637 -34.1636 -34.1635 -34.1635
   -34.1635 -34.1634 -34.1632 -34.1632 -34.1631 -34.1630 -34.1630 -34.1629
   -34.1625 -34.1625 -34.1622 -34.1620 -34.1619 -34.1619 -34.1617 -34.1616
   -34.1615 -34.1615 -34.1613 -34.1613 -34.1612 -34.1612 -34.1612 -34.1611
   -34.1610 -34.1609 -34.1608 -34.1607 -34.1606 -34.1606 -34.1605 -34.1605
   -34.1602 -34.1602 -34.1342 -34.1338 -34.1323 -34.1323 -34.1321 -34.1320
   -34.1320 -34.1319 -34.1318 -34.1318 -34.1317 -34.1316 -34.1315 -34.1315
   -34.1314 -34.1314 -34.1314 -34.1313 -34.1313 -34.1312 -34.1312 -34.1312
   -34.1312 -34.1311 -34.1311 -34.1310 -34.1310 -34.1309 -34.1309 -34.1309
   -34.1309 -34.1308 -34.1307 -34.1307 -34.1307 -34.1306 -34.1305 -34.1305
   -34.1305 -34.1305 -34.1304 -34.1304 -34.1303 -34.1303 -34.1302 -34.1302
   -34.1302 -34.1302 -34.1301 -34.1301 -34.1301 -34.1300 -34.1300 -34.1299
   -34.1299 -34.1299 -34.1298 -34.1298 -34.1297 -34.1296 -34.1296 -34.1295
   -34.1295 -34.1294 -34.1294 -34.1293 -34.1293 -34.1292 -34.1292 -34.1290
   -34.1289 -34.1288 -34.1178 -34.1169 -34.1166 -34.1165 -34.1162 -34.1161
   -34.1160 -34.1158 -34.1157 -34.1155 -34.1154 -34.1153 -34.1152 -34.1152
   -34.1150 -34.1149 -34.1148 -34.1148 -34.1147 -34.1144 -34.1143 -34.1142
   -34.1138 -34.1137 -34.1135 -34.1134 -34.1131 -34.1130 -34.1129 -34.1129
   -34.1128 -34.1127 -34.1125 -34.1125 -34.1124 -34.1122 -24.9084 -24.9081
   -24.9078 -24.9078 -24.8981 -24.8976 -24.8749 -24.8744 -24.8610 -24.8607
   -24.8604 -24.8604 -24.8043 -24.8040 -24.7943 -24.7938 -24.7938 -24.7938
   -24.7860 -24.7856 -24.7812 -24.7809 -24.7806 -24.7806 -24.7786 -24.7782
   -24.7738 -24.7734 -24.7733 -24.7733 -24.7665 -24.7661 -24.7658 -24.7658
   -24.7658 -24.7657 -24.7633 -24.7631 -24.7560 -24.7559 -24.7555 -24.7555
   -24.7521 -24.7517 -24.7515 -24.7515 -24.7336 -24.7332 -24.7149 -24.7147
   -24.7144 -24.7144 -24.7013 -24.7009  -1.2055  -0.9760  -0.8288  -0.8278
    -0.6095  -0.6081  -0.1278   0.0797   0.0809   0.0823   0.0824   0.2327
     0.2450   0.2463   0.4011   0.4016   0.4927   0.5314   0.5326   0.5820
     0.5826   0.6087   0.6342   0.6354   0.6892   0.7657   0.7787   0.7795
     0.8046   0.8073   0.8079   0.8948   0.9087   0.9096   0.9302   0.9675
     7.0750   7.0866   7.0874   7.3167   7.3488   7.3496   7.5182   7.5185
     7.5486   7.8375   7.9131   7.9414   7.9422   7.9693   8.1506   8.1513
     8.1551   8.1951   8.2010   8.2018   8.2788   8.2792   8.3473   8.3483
     8.3883   8.5417   8.7028   8.7036   8.8025   8.8034   9.0015   9.0023
     9.0631   9.1151   9.1163   9.1864   9.2581   9.3750   9.3756   9.4368
     9.4369   9.5127   9.5152   9.5160   9.5858   9.5869   9.8198   9.8617
     9.8625   9.9445   9.9456  10.0834  10.0984  10.1406  10.2289  10.2493
    10.2864  10.3134  10.3145  10.3446  10.3847  10.3855  10.4066  10.4072
    10.4629  10.4790  10.4799  10.5952  10.8908  10.9283  10.9291  10.9330
    10.9341  11.0498  11.0510  11.1022  11.1030  11.1401  11.1796  11.1811
    11.1840  11.3653  11.3898  11.3904  11.4064  11.4072  11.4909  11.5831
    11.5999  11.6004  11.6430  11.6436  11.6455  11.6458  11.6728  11.6848
    11.7496  11.7508  11.8209  11.8216  11.9005  11.9013  12.0747  12.0763
    12.2048  12.4043  12.4051  12.4880  12.7259  12.7266  12.7295  12.7304
    12.7665  12.7676  12.7802  12.7809  12.7815  12.7818  12.8814  12.9317
    12.9327  12.9446  13.0096  13.1629  13.1861  13.2954

          k =-0.5000 0.0000 0.1957 ( 87350 PWs)   bands (ev):

   -60.5762 -60.5760 -60.5743 -60.5739 -60.5738 -60.5737 -60.5701 -60.5697
   -60.5696 -60.5696 -60.5687 -60.5683 -60.5681 -60.5681 -60.5681 -60.5677
   -60.5675 -60.5669 -34.1679 -34.1679 -34.1655 -34.1654 -34.1651 -34.1650
   -34.1650 -34.1649 -34.1648 -34.1648 -34.1648 -34.1648 -34.1648 -34.1646
   -34.1646 -34.1645 -34.1644 -34.1644 -34.1644 -34.1643 -34.1643 -34.1643
   -34.1643 -34.1643 -34.1642 -34.1642 -34.1641 -34.1641 -34.1640 -34.1639
   -34.1638 -34.1638 -34.1638 -34.1637 -34.1637 -34.1636 -34.1635 -34.1635
   -34.1635 -34.1634 -34.1632 -34.1632 -34.1631 -34.1630 -34.1630 -34.1629
   -34.1625 -34.1625 -34.1622 -34.1620 -34.1619 -34.1619 -34.1617 -34.1616
   -34.1615 -34.1615 -34.1613 -34.1613 -34.1612 -34.1612 -34.1612 -34.1611
   -34.1610 -34.1609 -34.1608 -34.1607 -34.1606 -34.1606 -34.1605 -34.1605
   -34.1602 -34.1602 -34.1342 -34.1338 -34.1323 -34.1323 -34.1321 -34.1320
   -34.1320 -34.1319 -34.1318 -34.1317 -34.1317 -34.1316 -34.1316 -34.1315
   -34.1314 -34.1314 -34.1313 -34.1313 -34.1313 -34.1312 -34.1312 -34.1312
   -34.1311 -34.1311 -34.1311 -34.1311 -34.1310 -34.1309 -34.1309 -34.1309
   -34.1309 -34.1308 -34.1308 -34.1307 -34.1307 -34.1306 -34.1306 -34.1305
   -34.1305 -34.1305 -34.1304 -34.1304 -34.1303 -34.1303 -34.1303 -34.1302
   -34.1302 -34.1302 -34.1301 -34.1301 -34.1301 -34.1300 -34.1300 -34.1300
   -34.1299 -34.1299 -34.1298 -34.1298 -34.1297 -34.1296 -34.1296 -34.1295
   -34.1295 -34.1294 -34.1294 -34.1293 -34.1293 -34.1292 -34.1292 -34.1290
   -34.1289 -34.1288 -34.1178 -34.1169 -34.1166 -34.1164 -34.1162 -34.1161
   -34.1160 -34.1158 -34.1157 -34.1155 -34.1154 -34.1153 -34.1152 -34.1152
   -34.1150 -34.1149 -34.1148 -34.1148 -34.1147 -34.1144 -34.1143 -34.1142
   -34.1138 -34.1137 -34.1135 -34.1134 -34.1131 -34.1130 -34.1129 -34.1129
   -34.1128 -34.1127 -34.1125 -34.1125 -34.1124 -34.1122 -24.9084 -24.9081
   -24.9078 -24.9078 -24.8981 -24.8976 -24.8749 -24.8744 -24.8610 -24.8607
   -24.8604 -24.8604 -24.8043 -24.8040 -24.7943 -24.7938 -24.7938 -24.7938
   -24.7860 -24.7856 -24.7812 -24.7809 -24.7806 -24.7806 -24.7786 -24.7782
   -24.7738 -24.7734 -24.7733 -24.7733 -24.7665 -24.7661 -24.7658 -24.7658
   -24.7658 -24.7657 -24.7633 -24.7631 -24.7560 -24.7559 -24.7555 -24.7555
   -24.7521 -24.7517 -24.7515 -24.7515 -24.7336 -24.7332 -24.7149 -24.7147
   -24.7144 -24.7144 -24.7013 -24.7009  -1.2055  -0.9760  -0.8288  -0.8278
    -0.6095  -0.6081  -0.1278   0.0795   0.0809   0.0823   0.0827   0.2327
     0.2450   0.2463   0.4011   0.4016   0.4927   0.5314   0.5326   0.5820
     0.5826   0.6087   0.6342   0.6354   0.6892   0.7657   0.7787   0.7795
     0.8046   0.8074   0.8079   0.8947   0.9087   0.9096   0.9302   0.9675
     7.0750   7.0866   7.0874   7.3168   7.3487   7.3497   7.5181   7.5185
     7.5486   7.8374   7.9132   7.9415   7.9422   7.9692   8.1507   8.1512
     8.1551   8.1951   8.2011   8.2018   8.2786   8.2794   8.3477   8.3483
     8.3884   8.5416   8.7028   8.7038   8.8025   8.8033   9.0015   9.0024
     9.0628   9.1151   9.1164   9.1861   9.2585   9.3747   9.3755   9.4368
     9.4371   9.5132   9.5152   9.5157   9.5858   9.5867   9.8194   9.8617
     9.8623   9.9450   9.9454  10.0828  10.0984  10.1406  10.2293  10.2494
    10.2864  10.3138  10.3144  10.3449  10.3845  10.3856  10.4063  10.4072
    10.4626  10.4793  10.4799  10.5954  10.8904  10.9282  10.9290  10.9327
    10.9341  11.0501  11.0511  11.1025  11.1029  11.1403  11.1798  11.1809
    11.1838  11.3653  11.3902  11.3904  11.4062  11.4075  11.4907  11.5829
    11.5999  11.6003  11.6430  11.6438  11.6454  11.6459  11.6728  11.6844
    11.7495  11.7504  11.8209  11.8215  11.9006  11.9016  12.0746  12.0762
    12.2047  12.4042  12.4054  12.4885  12.7261  12.7265  12.7294  12.7307
    12.7668  12.7675  12.7802  12.7808  12.7816  12.7818  12.8813  12.9318
    12.9326  12.9447  13.0097  13.1624  13.1861  13.2956

          k =-0.2500 0.1443 0.1957 ( 87383 PWs)   bands (ev):

   -60.5774 -60.5772 -60.5732 -60.5730 -60.5718 -60.5714 -60.5714 -60.5714
   -60.5696 -60.5695 -60.5693 -60.5693 -60.5687 -60.5687 -60.5673 -60.5672
   -60.5672 -60.5667 -34.1679 -34.1679 -34.1656 -34.1654 -34.1653 -34.1652
   -34.1651 -34.1651 -34.1650 -34.1650 -34.1649 -34.1648 -34.1647 -34.1647
   -34.1647 -34.1647 -34.1646 -34.1646 -34.1646 -34.1645 -34.1645 -34.1645
   -34.1644 -34.1643 -34.1643 -34.1642 -34.1641 -34.1641 -34.1641 -34.1640
   -34.1639 -34.1639 -34.1638 -34.1638 -34.1635 -34.1634 -34.1634 -34.1633
   -34.1631 -34.1628 -34.1627 -34.1626 -34.1625 -34.1625 -34.1624 -34.1623
   -34.1621 -34.1620 -34.1619 -34.1619 -34.1619 -34.1618 -34.1617 -34.1616
   -34.1616 -34.1615 -34.1615 -34.1614 -34.1613 -34.1612 -34.1612 -34.1612
   -34.1611 -34.1611 -34.1610 -34.1610 -34.1610 -34.1607 -34.1607 -34.1607
   -34.1606 -34.1602 -34.1342 -34.1338 -34.1325 -34.1324 -34.1320 -34.1319
   -34.1319 -34.1318 -34.1317 -34.1317 -34.1317 -34.1316 -34.1316 -34.1315
   -34.1314 -34.1313 -34.1313 -34.1312 -34.1312 -34.1312 -34.1311 -34.1311
   -34.1311 -34.1311 -34.1311 -34.1310 -34.1310 -34.1310 -34.1309 -34.1309
   -34.1309 -34.1308 -34.1308 -34.1307 -34.1307 -34.1307 -34.1307 -34.1306
   -34.1305 -34.1305 -34.1305 -34.1304 -34.1304 -34.1304 -34.1304 -34.1304
   -34.1303 -34.1303 -34.1302 -34.1301 -34.1301 -34.1301 -34.1300 -34.1299
   -34.1299 -34.1299 -34.1298 -34.1298 -34.1297 -34.1297 -34.1296 -34.1296
   -34.1294 -34.1294 -34.1292 -34.1292 -34.1291 -34.1291 -34.1290 -34.1290
   -34.1289 -34.1288 -34.1179 -34.1170 -34.1167 -34.1164 -34.1161 -34.1160
   -34.1159 -34.1157 -34.1156 -34.1156 -34.1155 -34.1155 -34.1152 -34.1152
   -34.1151 -34.1150 -34.1150 -34.1148 -34.1147 -34.1145 -34.1142 -34.1140
   -34.1137 -34.1136 -34.1134 -34.1132 -34.1132 -34.1132 -34.1131 -34.1129
   -34.1128 -34.1127 -34.1126 -34.1126 -34.1123 -34.1122 -24.9017 -24.9012
   -24.8818 -24.8814 -24.8812 -24.8812 -24.8779 -24.8775 -24.8773 -24.8773
   -24.8354 -24.8350 -24.8348 -24.8348 -24.8102 -24.8099 -24.8087 -24.8085
   -24.8082 -24.8082 -24.8046 -24.8041 -24.7897 -24.7895 -24.7823 -24.7822
   -24.7820 -24.7820 -24.7720 -24.7720 -24.7717 -24.7717 -24.7692 -24.7690
   -24.7617 -24.7617 -24.7615 -24.7615 -24.7442 -24.7440 -24.7437 -24.7437
   -24.7398 -24.7395 -24.7306 -24.7305 -24.7301 -24.7301 -24.7169 -24.7165
   -24.7057 -24.7053 -24.6938 -24.6934  -1.4072  -1.1744  -0.6547  -0.4419
    -0.3340  -0.3326  -0.2404  -0.1376  -0.1360   0.1405   0.1754   0.1769
     0.1781   0.3292   0.3306   0.3428   0.3549   0.3553   0.4740   0.4758
     0.6112   0.6118   0.6277   0.6283   0.7096   0.7736   0.7749   0.8037
     0.8045   0.8355   0.8368   0.8501   0.9452   0.9460   1.0064   1.0072
     6.8241   7.1798   7.4501   7.5349   7.5353   7.6783   7.7368   7.7629
     7.7637   7.7996   7.8002   7.8879   7.8890   7.9133   7.9143   8.0707
     8.0719   8.2249   8.2256   8.3022   8.4075   8.4136   8.4332   8.4333
     8.5063   8.5067   8.5586   8.5589   8.6644   8.6657   8.9012   8.9020
     8.9888   9.0297   9.0301   9.0726   9.1915   9.1922   9.1962   9.3823
     9.3827   9.5468   9.5479   9.5502   9.5514   9.5764   9.5776   9.5878
     9.6190   9.6193   9.6783   9.7837   9.7848  10.0663  10.2011  10.2018
    10.3218  10.3238  10.3244  10.3339  10.3355  10.4858  10.4863  10.4930
    10.5147  10.5161  10.5928  10.7396  10.7408  10.7776  10.8075  11.1363
    11.1456  11.1508  11.1517  11.1964  11.2219  11.2240  11.3866  11.3869
    11.4353  11.4355  11.4566  11.4625  11.4633  11.5542  11.6274  11.6296
    11.6300  11.6668  11.6673  11.6999  11.7008  11.7856  11.7862  11.8012
    11.8021  11.8218  11.9093  12.0281  12.0502  12.0506  12.0923  12.1061
    12.2113  12.2125  12.3342  12.3993  12.4403  12.5118  12.5495  12.5501
    12.5518  12.5791  12.5795  12.5847  12.6363  12.6368  12.7176  12.7179
    13.1201  13.1202  13.3289  13.3290  13.3523  13.6536

          k =-0.2500-0.1443-0.1957 ( 87383 PWs)   bands (ev):

   -60.5774 -60.5772 -60.5732 -60.5730 -60.5717 -60.5715 -60.5714 -60.5714
   -60.5697 -60.5694 -60.5693 -60.5693 -60.5687 -60.5687 -60.5673 -60.5672
   -60.5672 -60.5667 -34.1680 -34.1679 -34.1656 -34.1654 -34.1653 -34.1652
   -34.1651 -34.1651 -34.1650 -34.1650 -34.1649 -34.1648 -34.1647 -34.1647
   -34.1647 -34.1647 -34.1646 -34.1646 -34.1646 -34.1645 -34.1645 -34.1644
   -34.1644 -34.1643 -34.1643 -34.1642 -34.1641 -34.1641 -34.1641 -34.1640
   -34.1639 -34.1639 -34.1639 -34.1638 -34.1635 -34.1634 -34.1634 -34.1633
   -34.1631 -34.1628 -34.1627 -34.1626 -34.1625 -34.1625 -34.1624 -34.1623
   -34.1622 -34.1620 -34.1619 -34.1619 -34.1618 -34.1618 -34.1617 -34.1616
   -34.1616 -34.1615 -34.1615 -34.1614 -34.1613 -34.1612 -34.1612 -34.1612
   -34.1611 -34.1611 -34.1610 -34.1610 -34.1610 -34.1608 -34.1607 -34.1607
   -34.1606 -34.1602 -34.1342 -34.1338 -34.1325 -34.1324 -34.1320 -34.1319
   -34.1319 -34.1318 -34.1318 -34.1317 -34.1317 -34.1316 -34.1316 -34.1315
   -34.1314 -34.1313 -34.1313 -34.1312 -34.1312 -34.1312 -34.1311 -34.1311
   -34.1311 -34.1311 -34.1311 -34.1310 -34.1310 -34.1310 -34.1309 -34.1309
   -34.1308 -34.1308 -34.1308 -34.1307 -34.1307 -34.1307 -34.1306 -34.1306
   -34.1305 -34.1305 -34.1305 -34.1304 -34.1304 -34.1304 -34.1304 -34.1303
   -34.1303 -34.1303 -34.1302 -34.1302 -34.1301 -34.1301 -34.1300 -34.1299
   -34.1299 -34.1299 -34.1298 -34.1298 -34.1297 -34.1297 -34.1296 -34.1296
   -34.1295 -34.1294 -34.1292 -34.1292 -34.1291 -34.1291 -34.1291 -34.1290
   -34.1289 -34.1288 -34.1179 -34.1170 -34.1167 -34.1164 -34.1161 -34.1160
   -34.1159 -34.1157 -34.1156 -34.1156 -34.1155 -34.1155 -34.1152 -34.1151
   -34.1151 -34.1150 -34.1150 -34.1148 -34.1147 -34.1145 -34.1143 -34.1140
   -34.1137 -34.1136 -34.1134 -34.1132 -34.1132 -34.1131 -34.1131 -34.1129
   -34.1128 -34.1127 -34.1126 -34.1126 -34.1123 -34.1122 -24.9016 -24.9012
   -24.8818 -24.8815 -24.8812 -24.8812 -24.8780 -24.8775 -24.8773 -24.8773
   -24.8354 -24.8351 -24.8348 -24.8348 -24.8102 -24.8099 -24.8087 -24.8085
   -24.8082 -24.8082 -24.8045 -24.8041 -24.7898 -24.7895 -24.7823 -24.7822
   -24.7820 -24.7820 -24.7720 -24.7720 -24.7717 -24.7717 -24.7692 -24.7690
   -24.7617 -24.7617 -24.7615 -24.7615 -24.7443 -24.7439 -24.7437 -24.7437
   -24.7399 -24.7395 -24.7307 -24.7303 -24.7301 -24.7301 -24.7169 -24.7165
   -24.7057 -24.7053 -24.6939 -24.6934  -1.4072  -1.1744  -0.6548  -0.4420
    -0.3337  -0.3327  -0.2404  -0.1374  -0.1360   0.1405   0.1758   0.1769
     0.1780   0.3293   0.3306   0.3426   0.3547   0.3553   0.4738   0.4759
     0.6109   0.6119   0.6276   0.6283   0.7097   0.7737   0.7749   0.8036
     0.8045   0.8355   0.8367   0.8504   0.9453   0.9460   1.0063   1.0072
     6.8241   7.1800   7.4504   7.5348   7.5352   7.6783   7.7368   7.7627
     7.7638   7.7996   7.8000   7.8880   7.8888   7.9135   7.9143   8.0709
     8.0715   8.2248   8.2258   8.3021   8.4072   8.4131   8.4329   8.4334
     8.5061   8.5070   8.5586   8.5588   8.6643   8.6657   8.9013   8.9022
     8.9883   9.0297   9.0303   9.0725   9.1921   9.1924   9.1966   9.3821
     9.3826   9.5475   9.5479   9.5506   9.5514   9.5765   9.5775   9.5876
     9.6191   9.6194   9.6787   9.7839   9.7847  10.0664  10.2016  10.2017
    10.3218  10.3242  10.3247  10.3339  10.3350  10.4859  10.4864  10.4925
    10.5155  10.5162  10.5923  10.7398  10.7406  10.7773  10.8072  11.1356
    11.1458  11.1507  11.1512  11.1968  11.2218  11.2236  11.3857  11.3867
    11.4350  11.4361  11.4576  11.4623  11.4629  11.5544  11.6286  11.6293
    11.6299  11.6672  11.6673  11.6994  11.7002  11.7858  11.7862  11.8012
    11.8030  11.8220  11.9094  12.0269  12.0500  12.0503  12.0912  12.1060
    12.2122  12.2131  12.3341  12.3991  12.4408  12.5123  12.5492  12.5499
    12.5515  12.5786  12.5789  12.5850  12.6364  12.6372  12.7174  12.7182
    13.1200  13.1202  13.3288  13.3290  13.3527  13.6536

          k = 0.2500 0.1443-0.1957 ( 87383 PWs)   bands (ev):

   -60.5774 -60.5772 -60.5732 -60.5730 -60.5717 -60.5715 -60.5714 -60.5714
   -60.5697 -60.5694 -60.5693 -60.5693 -60.5687 -60.5687 -60.5673 -60.5672
   -60.5672 -60.5667 -34.1680 -34.1679 -34.1656 -34.1654 -34.1653 -34.1652
   -34.1651 -34.1651 -34.1650 -34.1650 -34.1649 -34.1648 -34.1647 -34.1647
   -34.1647 -34.1647 -34.1646 -34.1646 -34.1646 -34.1645 -34.1645 -34.1644
   -34.1644 -34.1643 -34.1643 -34.1642 -34.1641 -34.1641 -34.1641 -34.1640
   -34.1639 -34.1639 -34.1639 -34.1638 -34.1635 -34.1634 -34.1634 -34.1633
   -34.1631 -34.1628 -34.1627 -34.1626 -34.1625 -34.1625 -34.1624 -34.1623
   -34.1622 -34.1620 -34.1619 -34.1619 -34.1618 -34.1618 -34.1617 -34.1616
   -34.1616 -34.1615 -34.1615 -34.1614 -34.1613 -34.1612 -34.1612 -34.1612
   -34.1611 -34.1611 -34.1610 -34.1610 -34.1610 -34.1608 -34.1607 -34.1607
   -34.1606 -34.1602 -34.1342 -34.1338 -34.1325 -34.1324 -34.1320 -34.1319
   -34.1318 -34.1318 -34.1318 -34.1317 -34.1317 -34.1316 -34.1315 -34.1315
   -34.1314 -34.1313 -34.1313 -34.1312 -34.1312 -34.1312 -34.1311 -34.1311
   -34.1311 -34.1311 -34.1310 -34.1310 -34.1310 -34.1310 -34.1309 -34.1309
   -34.1309 -34.1308 -34.1308 -34.1308 -34.1307 -34.1307 -34.1306 -34.1306
   -34.1305 -34.1305 -34.1305 -34.1304 -34.1304 -34.1304 -34.1304 -34.1303
   -34.1303 -34.1303 -34.1302 -34.1301 -34.1301 -34.1301 -34.1300 -34.1299
   -34.1299 -34.1299 -34.1298 -34.1298 -34.1297 -34.1297 -34.1296 -34.1296
   -34.1295 -34.1294 -34.1292 -34.1292 -34.1291 -34.1291 -34.1291 -34.1290
   -34.1289 -34.1288 -34.1179 -34.1170 -34.1167 -34.1164 -34.1161 -34.1160
   -34.1159 -34.1157 -34.1156 -34.1156 -34.1155 -34.1155 -34.1152 -34.1151
   -34.1151 -34.1150 -34.1150 -34.1148 -34.1147 -34.1145 -34.1143 -34.1140
   -34.1137 -34.1136 -34.1134 -34.1132 -34.1132 -34.1131 -34.1131 -34.1129
   -34.1128 -34.1127 -34.1126 -34.1126 -34.1123 -34.1122 -24.9016 -24.9012
   -24.8818 -24.8815 -24.8812 -24.8812 -24.8780 -24.8775 -24.8773 -24.8773
   -24.8354 -24.8351 -24.8348 -24.8348 -24.8102 -24.8099 -24.8087 -24.8085
   -24.8082 -24.8082 -24.8045 -24.8041 -24.7898 -24.7895 -24.7823 -24.7822
   -24.7820 -24.7820 -24.7720 -24.7720 -24.7717 -24.7717 -24.7692 -24.7690
   -24.7617 -24.7617 -24.7615 -24.7615 -24.7443 -24.7439 -24.7437 -24.7437
   -24.7399 -24.7395 -24.7307 -24.7303 -24.7301 -24.7301 -24.7169 -24.7165
   -24.7057 -24.7053 -24.6939 -24.6934  -1.4072  -1.1744  -0.6548  -0.4420
    -0.3337  -0.3327  -0.2404  -0.1374  -0.1360   0.1405   0.1756   0.1769
     0.1782   0.3292   0.3306   0.3426   0.3547   0.3553   0.4738   0.4760
     0.6109   0.6119   0.6276   0.6283   0.7097   0.7736   0.7749   0.8036
     0.8045   0.8356   0.8367   0.8504   0.9452   0.9460   1.0064   1.0072
     6.8241   7.1799   7.4505   7.5349   7.5353   7.6783   7.7368   7.7628
     7.7636   7.7994   7.7998   7.8878   7.8891   7.9132   7.9142   8.0707
     8.0718   8.2249   8.2255   8.3022   8.4071   8.4131   8.4336   8.4339
     8.5060   8.5062   8.5586   8.5599   8.6646   8.6661   8.9001   8.9012
     8.9882   9.0297   9.0303   9.0725   9.1918   9.1925   9.1971   9.3821
     9.3826   9.5473   9.5485   9.5508   9.5510   9.5765   9.5773   9.5875
     9.6189   9.6197   9.6781   9.7842   9.7851  10.0666  10.2005  10.2014
    10.3219  10.3240  10.3247  10.3345  10.3353  10.4862  10.4866  10.4924
    10.5157  10.5161  10.5923  10.7395  10.7404  10.7774  10.8072  11.1356
    11.1462  11.1508  11.1518  11.1967  11.2219  11.2236  11.3861  11.3864
    11.4350  11.4356  11.4570  11.4622  11.4629  11.5540  11.6287  11.6295
    11.6298  11.6664  11.6672  11.6998  11.7007  11.7853  11.7859  11.8019
    11.8021  11.8219  11.9095  12.0269  12.0499  12.0508  12.0913  12.1067
    12.2118  12.2135  12.3341  12.3996  12.4407  12.5117  12.5491  12.5500
    12.5515  12.5786  12.5790  12.5855  12.6360  12.6370  12.7177  12.7184
    13.1201  13.1202  13.3286  13.3290  13.3524  13.6537

          k = 0.0000-0.2887 0.1957 ( 87383 PWs)   bands (ev):

   -60.5774 -60.5772 -60.5732 -60.5730 -60.5718 -60.5714 -60.5714 -60.5714
   -60.5696 -60.5695 -60.5693 -60.5693 -60.5687 -60.5687 -60.5673 -60.5672
   -60.5672 -60.5667 -34.1680 -34.1679 -34.1655 -34.1654 -34.1654 -34.1652
   -34.1651 -34.1651 -34.1650 -34.1650 -34.1649 -34.1648 -34.1647 -34.1647
   -34.1647 -34.1647 -34.1647 -34.1646 -34.1646 -34.1646 -34.1645 -34.1644
   -34.1644 -34.1643 -34.1643 -34.1642 -34.1641 -34.1641 -34.1641 -34.1640
   -34.1639 -34.1639 -34.1639 -34.1638 -34.1635 -34.1634 -34.1634 -34.1632
   -34.1631 -34.1629 -34.1626 -34.1625 -34.1625 -34.1625 -34.1624 -34.1623
   -34.1621 -34.1620 -34.1619 -34.1619 -34.1619 -34.1618 -34.1618 -34.1617
   -34.1616 -34.1616 -34.1615 -34.1614 -34.1614 -34.1612 -34.1612 -34.1611
   -34.1611 -34.1611 -34.1610 -34.1610 -34.1610 -34.1607 -34.1607 -34.1607
   -34.1606 -34.1602 -34.1342 -34.1338 -34.1325 -34.1324 -34.1320 -34.1320
   -34.1318 -34.1318 -34.1318 -34.1317 -34.1317 -34.1316 -34.1316 -34.1314
   -34.1314 -34.1314 -34.1313 -34.1312 -34.1312 -34.1312 -34.1311 -34.1311
   -34.1311 -34.1311 -34.1311 -34.1310 -34.1310 -34.1310 -34.1309 -34.1309
   -34.1308 -34.1308 -34.1308 -34.1308 -34.1307 -34.1307 -34.1307 -34.1306
   -34.1305 -34.1305 -34.1305 -34.1305 -34.1304 -34.1304 -34.1304 -34.1304
   -34.1303 -34.1303 -34.1302 -34.1301 -34.1301 -34.1300 -34.1300 -34.1299
   -34.1299 -34.1299 -34.1298 -34.1298 -34.1297 -34.1297 -34.1296 -34.1295
   -34.1295 -34.1294 -34.1292 -34.1292 -34.1291 -34.1291 -34.1291 -34.1290
   -34.1289 -34.1288 -34.1179 -34.1170 -34.1167 -34.1164 -34.1161 -34.1159
   -34.1159 -34.1158 -34.1156 -34.1156 -34.1155 -34.1155 -34.1152 -34.1152
   -34.1151 -34.1150 -34.1150 -34.1148 -34.1147 -34.1145 -34.1143 -34.1140
   -34.1137 -34.1136 -34.1134 -34.1133 -34.1132 -34.1132 -34.1131 -34.1129
   -34.1128 -34.1127 -34.1126 -34.1126 -34.1123 -34.1122 -24.9016 -24.9012
   -24.8818 -24.8815 -24.8812 -24.8812 -24.8780 -24.8775 -24.8773 -24.8773
   -24.8354 -24.8350 -24.8348 -24.8348 -24.8102 -24.8099 -24.8087 -24.8085
   -24.8082 -24.8082 -24.8045 -24.8041 -24.7897 -24.7895 -24.7823 -24.7822
   -24.7820 -24.7820 -24.7720 -24.7720 -24.7717 -24.7717 -24.7692 -24.7690
   -24.7617 -24.7617 -24.7615 -24.7615 -24.7442 -24.7440 -24.7437 -24.7437
   -24.7399 -24.7395 -24.7307 -24.7304 -24.7301 -24.7301 -24.7169 -24.7165
   -24.7057 -24.7053 -24.6938 -24.6934  -1.4072  -1.1744  -0.6548  -0.4420
    -0.3340  -0.3325  -0.2404  -0.1376  -0.1359   0.1405   0.1756   0.1770
     0.1780   0.3291   0.3307   0.3427   0.3546   0.3555   0.4739   0.4759
     0.6109   0.6120   0.6276   0.6284   0.7096   0.7736   0.7749   0.8036
     0.8045   0.8355   0.8367   0.8503   0.9452   0.9460   1.0064   1.0072
     6.8241   7.1799   7.4503   7.5348   7.5353   7.6783   7.7368   7.7625
     7.7640   7.7995   7.8002   7.8877   7.8892   7.9133   7.9144   8.0707
     8.0718   8.2248   8.2257   8.3022   8.4074   8.4133   8.4330   8.4334
     8.5062   8.5069   8.5586   8.5589   8.6643   8.6657   8.9011   8.9022
     8.9885   9.0296   9.0304   9.0726   9.1918   9.1923   9.1964   9.3819
     9.3829   9.5471   9.5479   9.5504   9.5514   9.5759   9.5781   9.5877
     9.6189   9.6195   9.6785   9.7835   9.7851  10.0663  10.2014  10.2017
    10.3217  10.3240  10.3246  10.3334  10.3357  10.4857  10.4865  10.4927
    10.5149  10.5163  10.5926  10.7397  10.7408  10.7775  10.8073  11.1359
    11.1457  11.1507  11.1516  11.1966  11.2219  11.2238  11.3860  11.3869
    11.4353  11.4358  11.4571  11.4621  11.4633  11.5543  11.6279  11.6293
    11.6302  11.6670  11.6673  11.6993  11.7009  11.7855  11.7864  11.8015
    11.8022  11.8219  11.9094  12.0275  12.0500  12.0505  12.0918  12.1061
    12.2119  12.2126  12.3341  12.3992  12.4406  12.5121  12.5492  12.5503
    12.5516  12.5787  12.5793  12.5849  12.6362  12.6371  12.7175  12.7181
    13.1200  13.1202  13.3288  13.3290  13.3525  13.6536

          k =-0.0000 0.2887 0.1957 ( 87383 PWs)   bands (ev):

   -60.5774 -60.5772 -60.5732 -60.5730 -60.5718 -60.5714 -60.5714 -60.5714
   -60.5696 -60.5695 -60.5693 -60.5693 -60.5687 -60.5687 -60.5673 -60.5672
   -60.5672 -60.5667 -34.1680 -34.1679 -34.1655 -34.1654 -34.1654 -34.1652
   -34.1651 -34.1651 -34.1650 -34.1650 -34.1649 -34.1648 -34.1647 -34.1647
   -34.1647 -34.1647 -34.1647 -34.1646 -34.1646 -34.1646 -34.1645 -34.1644
   -34.1644 -34.1643 -34.1643 -34.1642 -34.1641 -34.1641 -34.1641 -34.1640
   -34.1639 -34.1639 -34.1638 -34.1638 -34.1635 -34.1634 -34.1634 -34.1632
   -34.1631 -34.1629 -34.1626 -34.1625 -34.1625 -34.1625 -34.1624 -34.1623
   -34.1621 -34.1620 -34.1619 -34.1619 -34.1619 -34.1618 -34.1618 -34.1617
   -34.1616 -34.1616 -34.1615 -34.1614 -34.1614 -34.1612 -34.1612 -34.1611
   -34.1611 -34.1611 -34.1610 -34.1610 -34.1610 -34.1607 -34.1607 -34.1607
   -34.1606 -34.1602 -34.1342 -34.1338 -34.1325 -34.1324 -34.1320 -34.1320
   -34.1318 -34.1318 -34.1317 -34.1317 -34.1317 -34.1316 -34.1316 -34.1314
   -34.1314 -34.1314 -34.1313 -34.1312 -34.1312 -34.1312 -34.1312 -34.1311
   -34.1311 -34.1311 -34.1310 -34.1310 -34.1310 -34.1310 -34.1310 -34.1309
   -34.1309 -34.1308 -34.1308 -34.1307 -34.1307 -34.1307 -34.1306 -34.1306
   -34.1305 -34.1305 -34.1305 -34.1305 -34.1304 -34.1304 -34.1304 -34.1303
   -34.1303 -34.1303 -34.1303 -34.1302 -34.1301 -34.1301 -34.1300 -34.1299
   -34.1299 -34.1299 -34.1298 -34.1298 -34.1297 -34.1297 -34.1296 -34.1295
   -34.1295 -34.1294 -34.1292 -34.1292 -34.1291 -34.1291 -34.1291 -34.1290
   -34.1289 -34.1288 -34.1179 -34.1170 -34.1167 -34.1164 -34.1161 -34.1159
   -34.1159 -34.1158 -34.1156 -34.1156 -34.1155 -34.1155 -34.1152 -34.1152
   -34.1151 -34.1150 -34.1150 -34.1148 -34.1147 -34.1145 -34.1143 -34.1140
   -34.1137 -34.1136 -34.1134 -34.1133 -34.1132 -34.1132 -34.1131 -34.1129
   -34.1128 -34.1127 -34.1126 -34.1126 -34.1123 -34.1122 -24.9016 -24.9012
   -24.8818 -24.8815 -24.8812 -24.8812 -24.8780 -24.8775 -24.8773 -24.8773
   -24.8354 -24.8350 -24.8348 -24.8348 -24.8102 -24.8099 -24.8087 -24.8085
   -24.8082 -24.8082 -24.8045 -24.8041 -24.7897 -24.7895 -24.7823 -24.7822
   -24.7820 -24.7820 -24.7720 -24.7720 -24.7717 -24.7717 -24.7692 -24.7690
   -24.7617 -24.7617 -24.7615 -24.7615 -24.7442 -24.7440 -24.7437 -24.7437
   -24.7399 -24.7395 -24.7307 -24.7304 -24.7301 -24.7301 -24.7169 -24.7165
   -24.7057 -24.7053 -24.6938 -24.6934  -1.4072  -1.1744  -0.6548  -0.4420
    -0.3340  -0.3325  -0.2404  -0.1376  -0.1359   0.1405   0.1756   0.1770
     0.1780   0.3291   0.3307   0.3427   0.3546   0.3555   0.4739   0.4759
     0.6109   0.6120   0.6276   0.6284   0.7096   0.7736   0.7749   0.8036
     0.8045   0.8355   0.8367   0.8503   0.9452   0.9460   1.0064   1.0072
     6.8241   7.1798   7.4504   7.5348   7.5355   7.6784   7.7368   7.7625
     7.7639   7.7994   7.7999   7.8878   7.8893   7.9131   7.9142   8.0707
     8.0717   8.2248   8.2257   8.3022   8.4073   8.4130   8.4334   8.4340
     8.5061   8.5062   8.5587   8.5596   8.6645   8.6660   8.9003   8.9013
     8.9885   9.0295   9.0304   9.0724   9.1917   9.1926   9.1973   9.3815
     9.3828   9.5473   9.5485   9.5507   9.5511   9.5763   9.5776   9.5877
     9.6187   9.6195   9.6780   9.7838   9.7857  10.0664  10.2001  10.2021
    10.3218  10.3232  10.3247  10.3345  10.3351  10.4861  10.4867  10.4927
    10.5154  10.5162  10.5926  10.7393  10.7408  10.7775  10.8073  11.1359
    11.1458  11.1507  11.1515  11.1966  11.2219  11.2238  11.3861  11.3869
    11.4350  11.4360  11.4571  11.4621  11.4633  11.5541  11.6281  11.6296
    11.6300  11.6661  11.6675  11.6997  11.7009  11.7854  11.7863  11.8019
    11.8022  11.8218  11.9094  12.0275  12.0500  12.0503  12.0918  12.1065
    12.2116  12.2129  12.3342  12.3992  12.4405  12.5114  12.5494  12.5501
    12.5517  12.5786  12.5794  12.5853  12.6359  12.6368  12.7178  12.7184
    13.1201  13.1202  13.3287  13.3290  13.3525  13.6536

     highest occupied level (ev):    13.6537

!    total energy              =  -11463.76773800 Ry
     estimated scf accuracy    <          3.8E-11 Ry

     The total energy is the sum of the following terms:
     one-electron contribution =   -5283.90345554 Ry
     hartree contribution      =    2927.47108402 Ry
     xc contribution           =   -2341.80958072 Ry
     ewald contribution        =   -6763.53880481 Ry
     Dispersion Correction     =      -1.98698095 Ry

     convergence has been achieved in  24 iterations

     Forces acting on atoms (cartesian axes, Ry/au):

     atom    1 type  1   force =     0.00001052   -0.00000010   -0.00004185
     atom    2 type  1   force =    -0.00000025   -0.00000738    0.00000534
     atom    3 type  1   force =     0.00000529   -0.00000353    0.00000833
     atom    4 type  1   force =     0.00000602    0.00000130    0.00000282
     atom    5 type  1   force =    -0.00000609   -0.00000086    0.00001090
     atom    6 type  1   force =    -0.00000074   -0.00000009   -0.00000351
     atom    7 type  1   force =     0.00000713    0.00000323    0.00000131
     atom    8 type  1   force =    -0.00000434   -0.00000011   -0.00000800
     atom    9 type  1   force =     0.00000038    0.00000673    0.00001228
     atom   10 type  1   force =     0.00212795   -0.00107174    0.00223754
     atom   11 type  1   force =     0.00001560    0.00001393    0.00004689
     atom   12 type  1   force =    -0.00003851   -0.00017945    0.00063652
     atom   13 type  1   force =     0.00027194    0.00124124    0.00142741
     atom   14 type  1   force =     0.00005734    0.00008681    0.00009721
     atom   15 type  1   force =    -0.00002189   -0.00004069    0.00003867
     atom   16 type  1   force =    -0.00000022   -0.00000881    0.00004530
     atom   17 type  1   force =     0.00002417   -0.00000473    0.00004837
     atom   18 type  1   force =    -0.00009262   -0.00004527    0.00006770
     atom   19 type  2   force =    -0.00285011    0.00001096   -0.00415165
     atom   20 type  2   force =     0.00018042   -0.00000019    0.00057266
     atom   21 type  2   force =     0.00024741    0.00001329    0.00051933
     atom   22 type  2   force =     0.00004672   -0.00014356    0.00052759
     atom   23 type  2   force =     0.00002287    0.00007630    0.00056390
     atom   24 type  2   force =    -0.00000549   -0.00000017    0.00064951
     atom   25 type  2   force =     0.00001171   -0.00007001    0.00055425
     atom   26 type  2   force =    -0.00000568    0.00000017    0.00065032
     atom   27 type  2   force =     0.00005819    0.00012350    0.00053740
     atom   28 type  2   force =    -0.00005400    0.00002442   -0.00061097
     atom   29 type  2   force =     0.00000125   -0.00000275   -0.00064786
     atom   30 type  2   force =     0.00009854    0.00006378   -0.00049312
     atom   31 type  2   force =    -0.00001196   -0.00008807   -0.00055204
     atom   32 type  2   force =    -0.00000505   -0.00000038   -0.00065824
     atom   33 type  2   force =     0.00000509   -0.00000547   -0.00065129
     atom   34 type  2   force =     0.00000353    0.00000116   -0.00064591
     atom   35 type  2   force =    -0.00000151    0.00000165   -0.00064986
     atom   36 type  2   force =    -0.00000449    0.00000585   -0.00065463
     atom   37 type  2   force =    -0.00000083    0.00000056    0.00065051
     atom   38 type  2   force =    -0.00000285    0.00000040    0.00064860
     atom   39 type  2   force =     0.00000036    0.00000044    0.00065014
     atom   40 type  2   force =    -0.00000029   -0.00000070    0.00065048
     atom   41 type  2   force =     0.00000063    0.00000099    0.00064562
     atom   42 type  2   force =    -0.00000163    0.00000032    0.00064832
     atom   43 type  2   force =    -0.00000116    0.00000084    0.00064881
     atom   44 type  2   force =    -0.00000067   -0.00000117    0.00064846
     atom   45 type  2   force =    -0.00000118   -0.00000132    0.00064686
     atom   46 type  2   force =    -0.00006008   -0.00000002   -0.00015614
     atom   47 type  2   force =     0.00007067    0.00006414   -0.00060296
     atom   48 type  2   force =    -0.00001553    0.00001340   -0.00067035
     atom   49 type  2   force =    -0.00008111    0.00001277   -0.00062664
     atom   50 type  2   force =     0.00002926    0.00002262   -0.00064691
     atom   51 type  2   force =     0.00000825   -0.00000006   -0.00067676
     atom   52 type  2   force =    -0.00003775   -0.00011370   -0.00059261
     atom   53 type  2   force =     0.00000789    0.00000020   -0.00067774
     atom   54 type  2   force =    -0.00001308   -0.00000064   -0.00068032

     Total force =     0.007325     Total SCF correction =     0.000049


     Computing stress (Cartesian axis) and pressure

          total   stress  (Ry/bohr**3)                   (kbar)     P=       19.02
   0.00015377  -0.00000028   0.00000089           22.62       -0.04        0.13
  -0.00000028   0.00015377  -0.00000000           -0.04       22.62       -0.00
   0.00000089  -0.00000000   0.00008042            0.13       -0.00       11.83


     Writing all to output data dir ./WSe.save/ :
     XML data file, charge density, pseudopotentials, collected wavefunctions
 
     init_run     :      9.86s CPU     11.64s WALL (       1 calls)
     electrons    :    728.05s CPU    879.18s WALL (       1 calls)
     forces       :      7.17s CPU      7.70s WALL (       1 calls)
     force_london :      0.04s CPU      0.04s WALL (       1 calls)
     stress       :    109.60s CPU    116.78s WALL (       1 calls)
     stres_london :      0.04s CPU      0.04s WALL (       1 calls)

     Called by init_run:
     wfcinit      :      9.08s CPU     10.75s WALL (       1 calls)
     potinit      :      0.05s CPU      0.08s WALL (       1 calls)
     hinit0       :      0.33s CPU      0.37s WALL (       1 calls)

     Called by electrons:
     c_bands      :    686.35s CPU    829.38s WALL (      25 calls)
     sum_band     :     39.60s CPU     46.94s WALL (      25 calls)
     v_of_rho     :      1.35s CPU      1.55s WALL (      25 calls)
     mix_rho      :      0.52s CPU      0.60s WALL (      25 calls)
     energy_londo :      0.04s CPU      0.04s WALL (       1 calls)

     Called by c_bands:
     init_us_2    :      9.07s CPU      9.22s WALL (     159 calls)
     init_us_2:cp :      9.06s CPU      9.21s WALL (     159 calls)
     cegterg      :    655.57s CPU    788.00s WALL (      75 calls)

     Called by *egterg:
     cdiaghg      :     45.22s CPU    113.99s WALL (     472 calls)
     h_psi        :    375.19s CPU    413.63s WALL (     478 calls)
     g_psi        :      1.59s CPU      1.64s WALL (     400 calls)

     Called by h_psi:
     h_psi:calbec :     98.15s CPU    104.60s WALL (     478 calls)
     vloc_psi     :    187.45s CPU    218.24s WALL (     478 calls)
     add_vuspsi   :     85.73s CPU     86.44s WALL (     478 calls)

     General routines
     calbec       :    105.24s CPU    115.45s WALL (     493 calls)
     fft          :      1.09s CPU      1.27s WALL (     275 calls)
     ffts         :      0.06s CPU      0.12s WALL (      25 calls)
     fftw         :    200.23s CPU    233.51s WALL (  195446 calls)
 
     Parallel routines
     fft_scatt_xy :     23.25s CPU     26.48s WALL (  195746 calls)
     fft_scatt_yz :    110.72s CPU    131.64s WALL (  195746 calls)
 
     PWSCF        :  14m16.83s CPU  17m 3.79s WALL

 
   This run was terminated on:  17:42:53   5Nov2024            

=------------------------------------------------------------------------------=
   JOB DONE.
=------------------------------------------------------------------------------=
