
     Program PWSCF v.7.3 starts on  5Nov2024 at 17: 8:46 

     This program is part of the open-source Quantum ESPRESSO suite
     for quantum simulation of materials; please cite
         "P. Giannozzi et al., J. Phys.:Condens. Matter 21 395502 (2009);
         "P. Giannozzi et al., J. Phys.:Condens. Matter 29 465901 (2017);
         "P. Giannozzi et al., J. Chem. Phys. 152 154105 (2020);
          URL http://www.quantum-espresso.org", 
     in publications or presentations arising from this work. More details at
     http://www.quantum-espresso.org/quote

     Parallel version (MPI & OpenMP), running on     256 processor cores
     Number of MPI processes:               256
     Threads/MPI process:                     1

     MPI processes distributed on     1 nodes
     480261 MiB available memory on the printing compute node when the environment starts
 
     Waiting for input...
     Reading input from standard input

     Current dimensions of program PWSCF are:
     Max number of different atomic species (ntypx) = 10
     Max number of k-points (npk) =  40000
     Max angular momentum in pseudopotentials (lmaxx) =  4

     File ./WSe.fire deleted, as requested
 
     K-points division:     npool     =       4
     R & G space division:  proc/nbgrp/npool/nimage =      64
     Subspace diagonalization in iterative solution of the eigenvalue problem:
     one sub-group per band group will be used
     scalapack distributed-memory algorithm (size of sub-group:  4*  4 procs)

 
     Parallelization info
     --------------------
     sticks:   dense  smooth     PW     G-vecs:    dense   smooth      PW
     Min         120     120     31                10920    10920    1445
     Max         121     121     32                10929    10929    1450
     Sum        7705    7705   1993               699065   699065   92625
 
     Using Pencil Decomposition
 


     bravais-lattice index     =            0
     lattice parameter (alat)  =      18.6947  a.u.
     unit-cell volume          =    7229.8735 (a.u.)^3
     number of atoms/cell      =           54
     number of atomic types    =            2
     number of electrons       =       828.00
     number of Kohn-Sham states=          414
     kinetic-energy cutoff     =      80.0000  Ry
     charge density cutoff     =     320.0000  Ry
     scf convergence threshold =      1.0E-10
     mixing beta               =       0.5000
     number of iterations used =            8  plain     mixing
     Exchange-correlation= PBE
                           (   1   4   3   4   0   0   0)

     celldm(1)=  18.694680  celldm(2)=   0.000000  celldm(3)=   0.000000
     celldm(4)=   0.000000  celldm(5)=   0.000000  celldm(6)=   0.000000

     crystal axes: (cart. coord. in units of alat)
               a(1) = (   1.000000   0.000000   0.000000 )  
               a(2) = (  -0.500000   0.866025   0.000000 )  
               a(3) = (   0.000000   0.000000   1.277750 )  

     reciprocal axes: (cart. coord. in units 2 pi/alat)
               b(1) = (  1.000000  0.577350  0.000000 )  
               b(2) = (  0.000000  1.154701  0.000000 )  
               b(3) = (  0.000000  0.000000  0.782626 )  


     PseudoPot. # 1 for W  read from file:
     /users/rkarkee/pbe_pseudo/W.upf
     MD5 check sum: cb94e439a9e4ea809831d6e90c63864e
     Pseudo is Norm-conserving + core correction, Zval = 14.0
     Generated using ONCVPSP code by D. R. Hamann
     Using radial grid of 1396 points,  8 beta functions with: 
                l(1) =   0
                l(2) =   0
                l(3) =   1
                l(4) =   1
                l(5) =   2
                l(6) =   2
                l(7) =   3
                l(8) =   3

     PseudoPot. # 2 for Se read from file:
     /users/rkarkee/pbe_pseudo/Se.upf
     MD5 check sum: 3cc46b3642295b3f4fdae63b742ce36d
     Pseudo is Norm-conserving + core correction, Zval = 16.0
     Generated using ONCVPSP code by D. R. Hamann
     Using radial grid of 1214 points,  6 beta functions with: 
                l(1) =   0
                l(2) =   0
                l(3) =   1
                l(4) =   1
                l(5) =   2
                l(6) =   2

     atomic species   valence    mass     pseudopotential
     W                14.00   183.84000     W ( 1.00)
     Se               16.00    78.96000     Se( 1.00)

     No symmetry found



   Cartesian axes

     site n.     atom                  positions (alat units)
         1        W      tau(   1) = (   0.0006593   0.1924501   0.9591552  )
         2        W      tau(   2) = (   0.3333333   0.1924501   0.9583127  )
         3        W      tau(   3) = (   0.6666667   0.1924501   0.9583127  )
         4        W      tau(   4) = (  -0.1666667   0.4811252   0.9583127  )
         5        W      tau(   5) = (   0.1666667   0.4811252   0.9583127  )
         6        W      tau(   6) = (   0.5000000   0.4811252   0.9583127  )
         7        W      tau(   7) = (  -0.3333333   0.7698004   0.9583127  )
         8        W      tau(   8) = (   0.0000000   0.7698004   0.9583127  )
         9        W      tau(   9) = (   0.3333333   0.7698004   0.9583127  )
        10        W      tau(  10) = (   0.1666667   0.0962250   0.3194376  )
        11        W      tau(  11) = (   0.5000000   0.0962250   0.3194376  )
        12        W      tau(  12) = (   0.8333333   0.0962250   0.3194376  )
        13        W      tau(  13) = (  -0.0000000   0.3849002   0.3194376  )
        14        W      tau(  14) = (   0.3333333   0.3849002   0.3194376  )
        15        W      tau(  15) = (   0.6666667   0.3849002   0.3194376  )
        16        W      tau(  16) = (  -0.1666667   0.6735753   0.3194376  )
        17        W      tau(  17) = (   0.1666667   0.6735753   0.3194376  )
        18        W      tau(  18) = (   0.5000000   0.6735753   0.3194376  )
        19        Se     tau(  19) = (  -0.0000000   0.1924501   0.1502708  )
        20        Se     tau(  20) = (   0.3333333   0.1924501   0.1502708  )
        21        Se     tau(  21) = (   0.6666667   0.1924501   0.1502708  )
        22        Se     tau(  22) = (  -0.1666667   0.4811252   0.1502708  )
        23        Se     tau(  23) = (   0.1666667   0.4811252   0.1502708  )
        24        Se     tau(  24) = (   0.5000000   0.4811252   0.1502708  )
        25        Se     tau(  25) = (  -0.3333333   0.7698004   0.1502708  )
        26        Se     tau(  26) = (   0.0000000   0.7698004   0.1502708  )
        27        Se     tau(  27) = (   0.3333333   0.7698004   0.1502708  )
        28        Se     tau(  28) = (   0.1666667   0.0962250   1.1274795  )
        29        Se     tau(  29) = (   0.5000000   0.0962250   1.1274795  )
        30        Se     tau(  30) = (   0.8333333   0.0962250   1.1274795  )
        31        Se     tau(  31) = (  -0.0000000   0.3849002   1.1274795  )
        32        Se     tau(  32) = (   0.3333333   0.3849002   1.1274795  )
        33        Se     tau(  33) = (   0.6666667   0.3849002   1.1274795  )
        34        Se     tau(  34) = (  -0.1666667   0.6735753   1.1274795  )
        35        Se     tau(  35) = (   0.1666667   0.6735753   1.1274795  )
        36        Se     tau(  36) = (   0.5000000   0.6735753   1.1274795  )
        37        Se     tau(  37) = (   0.1666667   0.0962250   0.7891459  )
        38        Se     tau(  38) = (   0.5000000   0.0962250   0.7891459  )
        39        Se     tau(  39) = (   0.8333333   0.0962250   0.7891459  )
        40        Se     tau(  40) = (  -0.0000000   0.3849002   0.7891459  )
        41        Se     tau(  41) = (   0.3333333   0.3849002   0.7891459  )
        42        Se     tau(  42) = (   0.6666667   0.3849002   0.7891459  )
        43        Se     tau(  43) = (  -0.1666667   0.6735753   0.7891459  )
        44        Se     tau(  44) = (   0.1666667   0.6735753   0.7891459  )
        45        Se     tau(  45) = (   0.5000000   0.6735753   0.7891459  )
        46        Se     tau(  46) = (  -0.0000000   0.1924501   0.4886044  )
        47        Se     tau(  47) = (   0.3333333   0.1924501   0.4886044  )
        48        Se     tau(  48) = (   0.6666667   0.1924501   0.4886044  )
        49        Se     tau(  49) = (  -0.1666667   0.4811252   0.4886044  )
        50        Se     tau(  50) = (   0.1666667   0.4811252   0.4886044  )
        51        Se     tau(  51) = (   0.5000000   0.4811252   0.4886044  )
        52        Se     tau(  52) = (  -0.3333333   0.7698004   0.4886044  )
        53        Se     tau(  53) = (   0.0000000   0.7698004   0.4886044  )
        54        Se     tau(  54) = (   0.3333333   0.7698004   0.4886044  )

     -------------------------------------------------
     Parameters for Dispersion (Grimme-D2) Correction:
     -------------------------------------------------
       atom      VdW radius       C_6     

        W          3.349       2818.308
        Se         3.347        438.498

     number of k points=    12
                       cart. coord. in units 2pi/alat
        k(    1) = (   0.2500000   0.4330127   0.1956564), wk =   0.1666667
        k(    2) = (   0.2500000  -0.1443376   0.1956564), wk =   0.1666667
        k(    3) = (  -0.2500000  -0.4330127   0.1956564), wk =   0.1666667
        k(    4) = (  -0.2500000   0.4330127  -0.1956564), wk =   0.1666667
        k(    5) = (   0.2500000  -0.4330127  -0.1956564), wk =   0.1666667
        k(    6) = (   0.5000000  -0.0000000   0.1956564), wk =   0.1666667
        k(    7) = (  -0.5000000   0.0000000   0.1956564), wk =   0.1666667
        k(    8) = (  -0.2500000   0.1443376   0.1956564), wk =   0.1666667
        k(    9) = (  -0.2500000  -0.1443376  -0.1956564), wk =   0.1666667
        k(   10) = (   0.2500000   0.1443376  -0.1956564), wk =   0.1666667
        k(   11) = (   0.0000000  -0.2886751   0.1956564), wk =   0.1666667
        k(   12) = (  -0.0000000   0.2886751   0.1956564), wk =   0.1666667

     Dense  grid:   699065 G-vectors     FFT dimensions: ( 108, 108, 144)

     Estimated max dynamical RAM per process >     118.34 MB

     Estimated total dynamical RAM >      29.08 GB

     Initial potential from superposition of free atoms

     starting charge     827.9882, renormalised to     828.0000
     Starting wfcs are  504 randomized atomic wfcs

     total cpu time spent up to now is       13.1 secs

     Self-consistent Calculation

     iteration #  1     ecut=    80.00 Ry     beta= 0.50
     Davidson diagonalization with overlap
     ethr =  1.00E-02,  avg # of iterations =  2.0

     Threshold (ethr) on eigenvalues was too large:
     Diagonalizing with lowered threshold

     Davidson diagonalization with overlap
     ethr =  8.88E-05,  avg # of iterations =  5.5

     total cpu time spent up to now is       88.6 secs

     total energy              =  -11463.54689267 Ry
     estimated scf accuracy    <       1.19503703 Ry

     iteration #  2     ecut=    80.00 Ry     beta= 0.50
     Davidson diagonalization with overlap
     ethr =  1.44E-04,  avg # of iterations =  4.5

     total cpu time spent up to now is      120.2 secs

     total energy              =  -11463.65603272 Ry
     estimated scf accuracy    <       0.42424063 Ry

     iteration #  3     ecut=    80.00 Ry     beta= 0.50
     Davidson diagonalization with overlap
     ethr =  5.12E-05,  avg # of iterations =  6.0

     total cpu time spent up to now is      157.5 secs

     total energy              =  -11463.72896926 Ry
     estimated scf accuracy    <       0.21774980 Ry

     iteration #  4     ecut=    80.00 Ry     beta= 0.50
     Davidson diagonalization with overlap
     ethr =  2.63E-05,  avg # of iterations =  5.4

     total cpu time spent up to now is      190.9 secs

     total energy              =  -11463.76453153 Ry
     estimated scf accuracy    <       0.00615922 Ry

     iteration #  5     ecut=    80.00 Ry     beta= 0.50
     Davidson diagonalization with overlap
     ethr =  7.44E-07,  avg # of iterations =  9.0

     total cpu time spent up to now is      242.6 secs

     total energy              =  -11463.76752655 Ry
     estimated scf accuracy    <       0.02836946 Ry

     iteration #  6     ecut=    80.00 Ry     beta= 0.50
     Davidson diagonalization with overlap
     ethr =  7.44E-07,  avg # of iterations =  5.0

     total cpu time spent up to now is      276.0 secs

     total energy              =  -11463.76360391 Ry
     estimated scf accuracy    <       0.01011334 Ry

     iteration #  7     ecut=    80.00 Ry     beta= 0.50
     Davidson diagonalization with overlap
     ethr =  7.44E-07,  avg # of iterations =  7.3

     total cpu time spent up to now is      322.4 secs

     total energy              =  -11463.76807079 Ry
     estimated scf accuracy    <       0.01492048 Ry

     iteration #  8     ecut=    80.00 Ry     beta= 0.50
     Davidson diagonalization with overlap
     ethr =  7.44E-07,  avg # of iterations =  2.8

     total cpu time spent up to now is      350.0 secs

     total energy              =  -11463.76635578 Ry
     estimated scf accuracy    <       0.00786760 Ry

     iteration #  9     ecut=    80.00 Ry     beta= 0.50
     Davidson diagonalization with overlap
     ethr =  7.44E-07,  avg # of iterations =  5.9

     total cpu time spent up to now is      385.1 secs

     total energy              =  -11463.76762543 Ry
     estimated scf accuracy    <       0.00009152 Ry

     iteration # 10     ecut=    80.00 Ry     beta= 0.50
     Davidson diagonalization with overlap
     ethr =  1.11E-08,  avg # of iterations =  6.1

     total cpu time spent up to now is      428.2 secs

     total energy              =  -11463.76766594 Ry
     estimated scf accuracy    <       0.00006005 Ry

     iteration # 11     ecut=    80.00 Ry     beta= 0.50
     Davidson diagonalization with overlap
     ethr =  7.25E-09,  avg # of iterations =  6.1

     total cpu time spent up to now is      470.2 secs

     total energy              =  -11463.76768918 Ry
     estimated scf accuracy    <       0.00009012 Ry

     iteration # 12     ecut=    80.00 Ry     beta= 0.50
     Davidson diagonalization with overlap
     ethr =  7.25E-09,  avg # of iterations =  2.0

     total cpu time spent up to now is      496.2 secs

     total energy              =  -11463.76767576 Ry
     estimated scf accuracy    <       0.00004857 Ry

     iteration # 13     ecut=    80.00 Ry     beta= 0.50
     Davidson diagonalization with overlap
     ethr =  5.87E-09,  avg # of iterations =  6.0

     total cpu time spent up to now is      533.2 secs

     total energy              =  -11463.76768750 Ry
     estimated scf accuracy    <       0.00000770 Ry

     iteration # 14     ecut=    80.00 Ry     beta= 0.50
     Davidson diagonalization with overlap
     ethr =  9.30E-10,  avg # of iterations =  2.0

     total cpu time spent up to now is      559.7 secs

     total energy              =  -11463.76768651 Ry
     estimated scf accuracy    <       0.00000576 Ry

     iteration # 15     ecut=    80.00 Ry     beta= 0.50
     Davidson diagonalization with overlap
     ethr =  6.95E-10,  avg # of iterations =  6.0

     total cpu time spent up to now is      593.0 secs

     total energy              =  -11463.76768720 Ry
     estimated scf accuracy    <       0.00000027 Ry

     iteration # 16     ecut=    80.00 Ry     beta= 0.50
     Davidson diagonalization with overlap
     ethr =  3.20E-11,  avg # of iterations =  6.0

     total cpu time spent up to now is      633.6 secs

     total energy              =  -11463.76768726 Ry
     estimated scf accuracy    <       0.00000005 Ry

     iteration # 17     ecut=    80.00 Ry     beta= 0.50
     Davidson diagonalization with overlap
     ethr =  5.89E-12,  avg # of iterations =  7.0

     total cpu time spent up to now is      670.9 secs

     total energy              =  -11463.76768726 Ry
     estimated scf accuracy    <       0.00000004 Ry

     iteration # 18     ecut=    80.00 Ry     beta= 0.50
     Davidson diagonalization with overlap
     ethr =  4.75E-12,  avg # of iterations =  6.5

     total cpu time spent up to now is      706.1 secs

     total energy              =  -11463.76768727 Ry
     estimated scf accuracy    <       0.00000002 Ry

     iteration # 19     ecut=    80.00 Ry     beta= 0.50
     Davidson diagonalization with overlap
     ethr =  2.32E-12,  avg # of iterations =  6.5

     total cpu time spent up to now is      741.7 secs

     total energy              =  -11463.76768727 Ry
     estimated scf accuracy    <          4.9E-09 Ry

     iteration # 20     ecut=    80.00 Ry     beta= 0.50
     Davidson diagonalization with overlap
     ethr =  5.97E-13,  avg # of iterations =  7.0

     total cpu time spent up to now is      778.2 secs

     total energy              =  -11463.76768727 Ry
     estimated scf accuracy    <          4.1E-09 Ry

     iteration # 21     ecut=    80.00 Ry     beta= 0.50
     Davidson diagonalization with overlap
     ethr =  4.97E-13,  avg # of iterations =  6.5

     total cpu time spent up to now is      810.8 secs

     total energy              =  -11463.76768727 Ry
     estimated scf accuracy    <          1.3E-09 Ry

     iteration # 22     ecut=    80.00 Ry     beta= 0.50
     Davidson diagonalization with overlap
     ethr =  1.55E-13,  avg # of iterations =  6.5

     total cpu time spent up to now is      847.4 secs

     total energy              =  -11463.76768727 Ry
     estimated scf accuracy    <          2.8E-10 Ry

     iteration # 23     ecut=    80.00 Ry     beta= 0.50
     Davidson diagonalization with overlap
     ethr =  1.00E-13,  avg # of iterations =  3.8

     total cpu time spent up to now is      875.8 secs

     End of self-consistent calculation

          k = 0.2500 0.4330 0.1957 ( 87350 PWs)   bands (ev):

   -60.5762 -60.5762 -60.5742 -60.5741 -60.5740 -60.5739 -60.5701 -60.5698
   -60.5698 -60.5696 -60.5686 -60.5684 -60.5683 -60.5683 -60.5683 -60.5679
   -60.5677 -60.5676 -34.1680 -34.1677 -34.1659 -34.1658 -34.1652 -34.1651
   -34.1650 -34.1650 -34.1649 -34.1648 -34.1648 -34.1647 -34.1647 -34.1647
   -34.1646 -34.1646 -34.1646 -34.1645 -34.1645 -34.1645 -34.1644 -34.1643
   -34.1642 -34.1641 -34.1641 -34.1641 -34.1640 -34.1640 -34.1640 -34.1638
   -34.1638 -34.1638 -34.1637 -34.1636 -34.1636 -34.1634 -34.1634 -34.1633
   -34.1633 -34.1632 -34.1632 -34.1632 -34.1631 -34.1628 -34.1628 -34.1627
   -34.1623 -34.1620 -34.1619 -34.1618 -34.1617 -34.1616 -34.1616 -34.1615
   -34.1614 -34.1614 -34.1613 -34.1613 -34.1611 -34.1610 -34.1609 -34.1608
   -34.1608 -34.1607 -34.1607 -34.1605 -34.1604 -34.1604 -34.1602 -34.1600
   -34.1584 -34.1581 -34.1350 -34.1347 -34.1331 -34.1325 -34.1321 -34.1321
   -34.1320 -34.1319 -34.1318 -34.1318 -34.1317 -34.1317 -34.1316 -34.1316
   -34.1315 -34.1315 -34.1315 -34.1314 -34.1314 -34.1313 -34.1313 -34.1312
   -34.1312 -34.1311 -34.1311 -34.1310 -34.1310 -34.1309 -34.1309 -34.1308
   -34.1307 -34.1307 -34.1307 -34.1306 -34.1306 -34.1305 -34.1305 -34.1305
   -34.1305 -34.1304 -34.1304 -34.1304 -34.1303 -34.1303 -34.1303 -34.1302
   -34.1302 -34.1301 -34.1301 -34.1300 -34.1300 -34.1299 -34.1299 -34.1298
   -34.1298 -34.1297 -34.1297 -34.1296 -34.1296 -34.1295 -34.1294 -34.1294
   -34.1293 -34.1293 -34.1293 -34.1292 -34.1290 -34.1289 -34.1287 -34.1281
   -34.1266 -34.1263 -34.1188 -34.1169 -34.1167 -34.1165 -34.1164 -34.1163
   -34.1162 -34.1158 -34.1155 -34.1155 -34.1154 -34.1153 -34.1152 -34.1152
   -34.1151 -34.1151 -34.1150 -34.1147 -34.1145 -34.1144 -34.1141 -34.1140
   -34.1140 -34.1135 -34.1132 -34.1131 -34.1130 -34.1128 -34.1127 -34.1127
   -34.1127 -34.1126 -34.1126 -34.1125 -34.1122 -34.1102 -24.9082 -24.9080
   -24.9080 -24.9077 -24.8979 -24.8978 -24.8746 -24.8745 -24.8609 -24.8606
   -24.8606 -24.8604 -24.8042 -24.8042 -24.7941 -24.7940 -24.7940 -24.7939
   -24.7859 -24.7858 -24.7812 -24.7809 -24.7809 -24.7806 -24.7784 -24.7783
   -24.7738 -24.7736 -24.7735 -24.7733 -24.7663 -24.7661 -24.7661 -24.7660
   -24.7660 -24.7657 -24.7633 -24.7633 -24.7558 -24.7557 -24.7557 -24.7555
   -24.7520 -24.7517 -24.7517 -24.7514 -24.7334 -24.7334 -24.7149 -24.7146
   -24.7146 -24.7144 -24.7012 -24.7011  -1.2049  -0.9752  -0.8282  -0.8273
    -0.6085  -0.6075  -0.1278   0.0803   0.0814   0.0822   0.0830   0.2329
     0.2458   0.2470   0.4012   0.4021   0.4932   0.5321   0.5329   0.5820
     0.5830   0.6093   0.6349   0.6357   0.6900   0.7665   0.7789   0.7799
     0.8050   0.8075   0.8088   0.8950   0.9091   0.9103   0.9308   0.9677
     7.0751   7.0873   7.0879   7.3170   7.3497   7.3504   7.5179   7.5191
     7.5489   7.8382   7.9138   7.9420   7.9430   7.9697   8.1513   8.1520
     8.1559   8.1958   8.2011   8.2017   8.2787   8.2794   8.3476   8.3490
     8.3886   8.5420   8.7030   8.7039   8.8026   8.8039   9.0018   9.0025
     9.0637   9.1160   9.1171   9.1865   9.2586   9.3757   9.3765   9.4376
     9.4382   9.5139   9.5160   9.5171   9.5865   9.5872   9.8202   9.8612
     9.8633   9.9449   9.9463  10.0839  10.0989  10.1408  10.2295  10.2503
    10.2872  10.3142  10.3155  10.3452  10.3852  10.3861  10.4071  10.4079
    10.4630  10.4794  10.4814  10.5957  10.8913  10.9287  10.9296  10.9331
    10.9351  11.0505  11.0515  11.1019  11.1044  11.1396  11.1793  11.1806
    11.1854  11.3668  11.3895  11.3918  11.4064  11.4073  11.4901  11.5829
    11.6001  11.6023  11.6434  11.6451  11.6458  11.6465  11.6728  11.6844
    11.7496  11.7499  11.8212  11.8219  11.9005  11.9009  12.0752  12.0756
    12.2056  12.4043  12.4049  12.4880  12.7255  12.7267  12.7303  12.7312
    12.7664  12.7674  12.7795  12.7804  12.7818  12.7833  12.8816  12.9323
    12.9333  12.9447  13.0102  13.1625  13.1863  13.2956

          k = 0.2500-0.1443 0.1957 ( 87383 PWs)   bands (ev):

   -60.5774 -60.5774 -60.5732 -60.5732 -60.5717 -60.5716 -60.5716 -60.5716
   -60.5696 -60.5695 -60.5695 -60.5695 -60.5689 -60.5689 -60.5674 -60.5674
   -60.5674 -60.5673 -34.1680 -34.1678 -34.1661 -34.1658 -34.1655 -34.1652
   -34.1652 -34.1651 -34.1650 -34.1649 -34.1649 -34.1648 -34.1648 -34.1648
   -34.1648 -34.1647 -34.1647 -34.1646 -34.1645 -34.1645 -34.1644 -34.1643
   -34.1643 -34.1643 -34.1643 -34.1642 -34.1642 -34.1641 -34.1641 -34.1640
   -34.1639 -34.1637 -34.1637 -34.1637 -34.1636 -34.1633 -34.1631 -34.1628
   -34.1628 -34.1628 -34.1628 -34.1626 -34.1623 -34.1623 -34.1622 -34.1622
   -34.1622 -34.1621 -34.1619 -34.1618 -34.1618 -34.1618 -34.1615 -34.1615
   -34.1615 -34.1614 -34.1613 -34.1613 -34.1613 -34.1613 -34.1613 -34.1611
   -34.1609 -34.1609 -34.1609 -34.1608 -34.1605 -34.1604 -34.1603 -34.1600
   -34.1584 -34.1583 -34.1350 -34.1347 -34.1331 -34.1326 -34.1323 -34.1322
   -34.1319 -34.1319 -34.1318 -34.1317 -34.1316 -34.1316 -34.1315 -34.1315
   -34.1314 -34.1314 -34.1314 -34.1313 -34.1313 -34.1313 -34.1313 -34.1312
   -34.1312 -34.1311 -34.1311 -34.1310 -34.1310 -34.1309 -34.1309 -34.1308
   -34.1308 -34.1308 -34.1308 -34.1307 -34.1307 -34.1306 -34.1306 -34.1306
   -34.1305 -34.1305 -34.1305 -34.1304 -34.1304 -34.1303 -34.1303 -34.1303
   -34.1302 -34.1302 -34.1302 -34.1301 -34.1301 -34.1300 -34.1299 -34.1298
   -34.1297 -34.1296 -34.1296 -34.1296 -34.1295 -34.1295 -34.1294 -34.1294
   -34.1293 -34.1292 -34.1291 -34.1291 -34.1290 -34.1289 -34.1287 -34.1281
   -34.1266 -34.1262 -34.1188 -34.1171 -34.1169 -34.1164 -34.1162 -34.1161
   -34.1159 -34.1158 -34.1158 -34.1156 -34.1154 -34.1154 -34.1153 -34.1153
   -34.1150 -34.1150 -34.1150 -34.1148 -34.1147 -34.1144 -34.1140 -34.1138
   -34.1135 -34.1135 -34.1134 -34.1132 -34.1130 -34.1130 -34.1130 -34.1129
   -34.1126 -34.1125 -34.1125 -34.1124 -34.1122 -34.1102 -24.9015 -24.9014
   -24.8817 -24.8814 -24.8814 -24.8811 -24.8779 -24.8775 -24.8775 -24.8771
   -24.8352 -24.8350 -24.8350 -24.8346 -24.8101 -24.8101 -24.8086 -24.8084
   -24.8084 -24.8082 -24.8044 -24.8043 -24.7897 -24.7897 -24.7823 -24.7822
   -24.7822 -24.7822 -24.7720 -24.7719 -24.7719 -24.7719 -24.7692 -24.7692
   -24.7617 -24.7617 -24.7617 -24.7617 -24.7441 -24.7439 -24.7439 -24.7437
   -24.7397 -24.7396 -24.7305 -24.7303 -24.7303 -24.7302 -24.7167 -24.7167
   -24.7056 -24.7055 -24.6936 -24.6936  -1.4066  -1.1735  -0.6541  -0.4411
    -0.3332  -0.3323  -0.2405  -0.1366  -0.1356   0.1407   0.1765   0.1772
     0.1780   0.3301   0.3309   0.3435   0.3548   0.3558   0.4748   0.4761
     0.6114   0.6124   0.6278   0.6290   0.7098   0.7745   0.7752   0.8039
     0.8052   0.8363   0.8372   0.8506   0.9453   0.9468   1.0065   1.0080
     6.8242   7.1801   7.4509   7.5358   7.5359   7.6788   7.7374   7.7636
     7.7638   7.8004   7.8007   7.8891   7.8893   7.9135   7.9144   8.0715
     8.0722   8.2255   8.2265   8.3024   8.4078   8.4134   8.4344   8.4352
     8.5063   8.5069   8.5587   8.5594   8.6655   8.6661   8.9005   8.9010
     8.9893   9.0301   9.0307   9.0731   9.1924   9.1927   9.1982   9.3818
     9.3827   9.5484   9.5488   9.5511   9.5518   9.5772   9.5775   9.5888
     9.6192   9.6198   9.6781   9.7846   9.7850  10.0668  10.2012  10.2019
    10.3210  10.3234  10.3247  10.3350  10.3352  10.4866  10.4875  10.4941
    10.5159  10.5167  10.5941  10.7400  10.7415  10.7790  10.8088  11.1374
    11.1449  11.1499  11.1518  11.1976  11.2227  11.2256  11.3863  11.3870
    11.4349  11.4362  11.4562  11.4624  11.4633  11.5539  11.6284  11.6297
    11.6309  11.6665  11.6674  11.7006  11.7016  11.7861  11.7868  11.8017
    11.8024  11.8227  11.9104  12.0295  12.0491  12.0505  12.0939  12.1061
    12.2106  12.2131  12.3349  12.3988  12.4402  12.5107  12.5489  12.5521
    12.5527  12.5785  12.5814  12.5849  12.6361  12.6368  12.7183  12.7190
    13.1202  13.1207  13.3286  13.3298  13.3523  13.6531

          k =-0.2500-0.4330 0.1957 ( 87350 PWs)   bands (ev):

   -60.5762 -60.5762 -60.5742 -60.5741 -60.5740 -60.5739 -60.5701 -60.5698
   -60.5698 -60.5696 -60.5686 -60.5684 -60.5683 -60.5683 -60.5683 -60.5679
   -60.5677 -60.5676 -34.1680 -34.1677 -34.1659 -34.1658 -34.1653 -34.1651
   -34.1650 -34.1650 -34.1649 -34.1648 -34.1648 -34.1647 -34.1647 -34.1647
   -34.1646 -34.1646 -34.1646 -34.1645 -34.1645 -34.1645 -34.1644 -34.1643
   -34.1642 -34.1642 -34.1641 -34.1641 -34.1640 -34.1640 -34.1640 -34.1638
   -34.1638 -34.1638 -34.1637 -34.1636 -34.1636 -34.1634 -34.1634 -34.1633
   -34.1633 -34.1632 -34.1632 -34.1632 -34.1631 -34.1628 -34.1628 -34.1627
   -34.1623 -34.1620 -34.1619 -34.1618 -34.1617 -34.1616 -34.1616 -34.1615
   -34.1614 -34.1614 -34.1613 -34.1613 -34.1611 -34.1610 -34.1609 -34.1608
   -34.1608 -34.1607 -34.1607 -34.1605 -34.1604 -34.1604 -34.1602 -34.1600
   -34.1584 -34.1581 -34.1350 -34.1347 -34.1331 -34.1325 -34.1321 -34.1321
   -34.1320 -34.1319 -34.1318 -34.1317 -34.1317 -34.1317 -34.1316 -34.1316
   -34.1315 -34.1315 -34.1315 -34.1314 -34.1314 -34.1313 -34.1313 -34.1313
   -34.1312 -34.1311 -34.1311 -34.1310 -34.1310 -34.1309 -34.1309 -34.1308
   -34.1308 -34.1307 -34.1307 -34.1307 -34.1306 -34.1305 -34.1305 -34.1305
   -34.1304 -34.1304 -34.1304 -34.1304 -34.1303 -34.1303 -34.1303 -34.1302
   -34.1302 -34.1302 -34.1301 -34.1300 -34.1299 -34.1299 -34.1298 -34.1298
   -34.1297 -34.1297 -34.1297 -34.1296 -34.1296 -34.1295 -34.1295 -34.1294
   -34.1293 -34.1293 -34.1292 -34.1292 -34.1290 -34.1289 -34.1287 -34.1281
   -34.1266 -34.1263 -34.1188 -34.1169 -34.1167 -34.1165 -34.1163 -34.1163
   -34.1162 -34.1158 -34.1155 -34.1155 -34.1154 -34.1153 -34.1152 -34.1152
   -34.1151 -34.1150 -34.1150 -34.1147 -34.1145 -34.1144 -34.1141 -34.1140
   -34.1140 -34.1135 -34.1132 -34.1131 -34.1130 -34.1128 -34.1127 -34.1127
   -34.1127 -34.1126 -34.1126 -34.1125 -34.1122 -34.1102 -24.9082 -24.9080
   -24.9080 -24.9077 -24.8979 -24.8978 -24.8746 -24.8745 -24.8609 -24.8606
   -24.8606 -24.8604 -24.8042 -24.8042 -24.7941 -24.7940 -24.7940 -24.7939
   -24.7859 -24.7858 -24.7812 -24.7809 -24.7809 -24.7806 -24.7784 -24.7783
   -24.7738 -24.7736 -24.7735 -24.7733 -24.7663 -24.7661 -24.7661 -24.7660
   -24.7660 -24.7657 -24.7633 -24.7633 -24.7558 -24.7557 -24.7557 -24.7555
   -24.7520 -24.7517 -24.7517 -24.7514 -24.7334 -24.7334 -24.7149 -24.7146
   -24.7146 -24.7144 -24.7012 -24.7011  -1.2049  -0.9752  -0.8282  -0.8273
    -0.6085  -0.6075  -0.1278   0.0803   0.0812   0.0822   0.0832   0.2329
     0.2458   0.2470   0.4012   0.4021   0.4932   0.5321   0.5329   0.5820
     0.5830   0.6093   0.6349   0.6357   0.6899   0.7664   0.7789   0.7799
     0.8050   0.8075   0.8088   0.8950   0.9091   0.9104   0.9308   0.9677
     7.0751   7.0874   7.0879   7.3170   7.3497   7.3504   7.5179   7.5191
     7.5489   7.8382   7.9138   7.9420   7.9430   7.9697   8.1513   8.1521
     8.1559   8.1958   8.2011   8.2017   8.2787   8.2794   8.3476   8.3490
     8.3886   8.5420   8.7029   8.7040   8.8027   8.8038   9.0018   9.0025
     9.0637   9.1160   9.1171   9.1865   9.2586   9.3758   9.3764   9.4376
     9.4382   9.5140   9.5160   9.5169   9.5864   9.5873   9.8202   9.8614
     9.8631   9.9452   9.9461  10.0839  10.0989  10.1408  10.2296  10.2503
    10.2873  10.3144  10.3153  10.3453  10.3850  10.3862  10.4070  10.4080
    10.4630  10.4794  10.4814  10.5957  10.8913  10.9287  10.9295  10.9330
    10.9352  11.0506  11.0513  11.1021  11.1043  11.1396  11.1793  11.1805
    11.1855  11.3668  11.3894  11.3919  11.4062  11.4074  11.4901  11.5830
    11.6002  11.6022  11.6433  11.6447  11.6459  11.6468  11.6728  11.6844
    11.7497  11.7498  11.8214  11.8217  11.9005  11.9010  12.0752  12.0757
    12.2056  12.4044  12.4048  12.4881  12.7258  12.7264  12.7303  12.7312
    12.7668  12.7670  12.7788  12.7810  12.7818  12.7834  12.8816  12.9323
    12.9333  12.9447  13.0102  13.1625  13.1863  13.2956

          k =-0.2500 0.4330-0.1957 ( 87350 PWs)   bands (ev):

   -60.5762 -60.5762 -60.5742 -60.5741 -60.5740 -60.5739 -60.5701 -60.5698
   -60.5698 -60.5696 -60.5687 -60.5683 -60.5683 -60.5683 -60.5682 -60.5680
   -60.5677 -60.5676 -34.1679 -34.1678 -34.1660 -34.1658 -34.1653 -34.1652
   -34.1650 -34.1650 -34.1649 -34.1648 -34.1647 -34.1647 -34.1647 -34.1646
   -34.1646 -34.1645 -34.1645 -34.1645 -34.1645 -34.1644 -34.1644 -34.1644
   -34.1642 -34.1642 -34.1641 -34.1641 -34.1640 -34.1640 -34.1640 -34.1639
   -34.1638 -34.1638 -34.1637 -34.1637 -34.1636 -34.1634 -34.1634 -34.1633
   -34.1633 -34.1632 -34.1632 -34.1632 -34.1629 -34.1628 -34.1628 -34.1627
   -34.1624 -34.1623 -34.1620 -34.1617 -34.1617 -34.1617 -34.1617 -34.1615
   -34.1615 -34.1614 -34.1613 -34.1612 -34.1611 -34.1610 -34.1609 -34.1608
   -34.1608 -34.1608 -34.1606 -34.1605 -34.1605 -34.1604 -34.1601 -34.1599
   -34.1584 -34.1582 -34.1350 -34.1347 -34.1331 -34.1325 -34.1322 -34.1321
   -34.1320 -34.1319 -34.1318 -34.1318 -34.1317 -34.1317 -34.1316 -34.1316
   -34.1315 -34.1315 -34.1315 -34.1314 -34.1314 -34.1313 -34.1313 -34.1313
   -34.1312 -34.1311 -34.1311 -34.1310 -34.1310 -34.1310 -34.1309 -34.1308
   -34.1307 -34.1307 -34.1307 -34.1306 -34.1306 -34.1305 -34.1305 -34.1305
   -34.1305 -34.1304 -34.1304 -34.1304 -34.1303 -34.1303 -34.1303 -34.1302
   -34.1302 -34.1302 -34.1301 -34.1300 -34.1300 -34.1299 -34.1299 -34.1298
   -34.1297 -34.1297 -34.1297 -34.1296 -34.1296 -34.1295 -34.1295 -34.1294
   -34.1294 -34.1293 -34.1292 -34.1291 -34.1290 -34.1290 -34.1287 -34.1281
   -34.1266 -34.1262 -34.1188 -34.1169 -34.1167 -34.1164 -34.1163 -34.1163
   -34.1162 -34.1158 -34.1156 -34.1155 -34.1154 -34.1153 -34.1152 -34.1151
   -34.1151 -34.1150 -34.1149 -34.1147 -34.1145 -34.1144 -34.1141 -34.1140
   -34.1140 -34.1135 -34.1132 -34.1131 -34.1131 -34.1129 -34.1128 -34.1127
   -34.1127 -34.1126 -34.1126 -34.1124 -34.1122 -34.1102 -24.9083 -24.9080
   -24.9080 -24.9078 -24.8978 -24.8977 -24.8747 -24.8746 -24.8608 -24.8606
   -24.8606 -24.8603 -24.8042 -24.8042 -24.7941 -24.7940 -24.7940 -24.7939
   -24.7858 -24.7858 -24.7812 -24.7809 -24.7809 -24.7805 -24.7784 -24.7784
   -24.7738 -24.7736 -24.7735 -24.7733 -24.7664 -24.7660 -24.7660 -24.7660
   -24.7660 -24.7657 -24.7633 -24.7633 -24.7560 -24.7557 -24.7557 -24.7556
   -24.7519 -24.7517 -24.7517 -24.7514 -24.7335 -24.7334 -24.7149 -24.7146
   -24.7146 -24.7144 -24.7011 -24.7010  -1.2049  -0.9752  -0.8282  -0.8273
    -0.6085  -0.6075  -0.1278   0.0802   0.0812   0.0821   0.0830   0.2329
     0.2457   0.2468   0.4012   0.4021   0.4934   0.5323   0.5331   0.5822
     0.5831   0.6094   0.6351   0.6359   0.6896   0.7662   0.7791   0.7801
     0.8047   0.8075   0.8085   0.8953   0.9088   0.9101   0.9305   0.9681
     7.0752   7.0871   7.0877   7.3175   7.3494   7.3501   7.5179   7.5192
     7.5495   7.8381   7.9137   7.9421   7.9431   7.9697   8.1516   8.1521
     8.1553   8.1953   8.2014   8.2020   8.2790   8.2797   8.3476   8.3490
     8.3893   8.5427   8.7029   8.7038   8.8025   8.8038   9.0022   9.0029
     9.0631   9.1156   9.1166   9.1866   9.2583   9.3752   9.3760   9.4375
     9.4381   9.5133   9.5159   9.5169   9.5868   9.5875   9.8196   9.8613
     9.8633   9.9448   9.9462  10.0833  10.0988  10.1401  10.2293  10.2507
    10.2877  10.3142  10.3154  10.3451  10.3857  10.3865  10.4069  10.4078
    10.4638  10.4790  10.4810  10.5955  10.8911  10.9288  10.9296  10.9332
    10.9351  11.0507  11.0517  11.1024  11.1047  11.1401  11.1790  11.1806
    11.1838  11.3662  11.3895  11.3913  11.4059  11.4069  11.4912  11.5846
    11.6001  11.6023  11.6433  11.6450  11.6457  11.6465  11.6747  11.6845
    11.7495  11.7498  11.8216  11.8222  11.9008  11.9012  12.0755  12.0759
    12.2047  12.4041  12.4047  12.4880  12.7259  12.7267  12.7299  12.7306
    12.7666  12.7673  12.7796  12.7808  12.7822  12.7837  12.8814  12.9321
    12.9330  12.9450  13.0101  13.1623  13.1867  13.2949

          k = 0.2500-0.4330-0.1957 ( 87350 PWs)   bands (ev):

   -60.5762 -60.5762 -60.5742 -60.5741 -60.5740 -60.5739 -60.5701 -60.5698
   -60.5698 -60.5696 -60.5687 -60.5683 -60.5683 -60.5683 -60.5682 -60.5680
   -60.5677 -60.5676 -34.1679 -34.1678 -34.1660 -34.1658 -34.1653 -34.1652
   -34.1650 -34.1650 -34.1649 -34.1648 -34.1647 -34.1647 -34.1647 -34.1646
   -34.1646 -34.1645 -34.1645 -34.1645 -34.1645 -34.1644 -34.1644 -34.1644
   -34.1642 -34.1642 -34.1641 -34.1641 -34.1640 -34.1640 -34.1640 -34.1639
   -34.1638 -34.1638 -34.1637 -34.1637 -34.1636 -34.1634 -34.1634 -34.1633
   -34.1633 -34.1632 -34.1632 -34.1632 -34.1629 -34.1628 -34.1628 -34.1627
   -34.1624 -34.1623 -34.1620 -34.1617 -34.1617 -34.1617 -34.1617 -34.1615
   -34.1615 -34.1614 -34.1613 -34.1612 -34.1611 -34.1610 -34.1609 -34.1608
   -34.1608 -34.1608 -34.1606 -34.1605 -34.1605 -34.1604 -34.1601 -34.1599
   -34.1584 -34.1582 -34.1350 -34.1347 -34.1331 -34.1325 -34.1322 -34.1321
   -34.1319 -34.1319 -34.1318 -34.1318 -34.1317 -34.1317 -34.1316 -34.1316
   -34.1315 -34.1315 -34.1315 -34.1314 -34.1314 -34.1314 -34.1313 -34.1313
   -34.1312 -34.1311 -34.1311 -34.1310 -34.1310 -34.1309 -34.1309 -34.1308
   -34.1307 -34.1307 -34.1307 -34.1307 -34.1306 -34.1305 -34.1305 -34.1305
   -34.1305 -34.1304 -34.1304 -34.1304 -34.1303 -34.1303 -34.1303 -34.1302
   -34.1302 -34.1301 -34.1301 -34.1300 -34.1300 -34.1299 -34.1298 -34.1298
   -34.1297 -34.1297 -34.1297 -34.1296 -34.1296 -34.1295 -34.1295 -34.1294
   -34.1294 -34.1292 -34.1292 -34.1291 -34.1290 -34.1290 -34.1287 -34.1281
   -34.1266 -34.1262 -34.1188 -34.1169 -34.1167 -34.1164 -34.1164 -34.1163
   -34.1162 -34.1158 -34.1156 -34.1155 -34.1154 -34.1153 -34.1152 -34.1151
   -34.1151 -34.1150 -34.1149 -34.1147 -34.1145 -34.1143 -34.1142 -34.1140
   -34.1140 -34.1135 -34.1132 -34.1131 -34.1131 -34.1129 -34.1128 -34.1127
   -34.1127 -34.1126 -34.1126 -34.1124 -34.1122 -34.1102 -24.9083 -24.9080
   -24.9080 -24.9078 -24.8978 -24.8977 -24.8747 -24.8746 -24.8608 -24.8606
   -24.8606 -24.8603 -24.8042 -24.8042 -24.7941 -24.7940 -24.7940 -24.7939
   -24.7858 -24.7858 -24.7812 -24.7809 -24.7809 -24.7805 -24.7784 -24.7784
   -24.7738 -24.7736 -24.7735 -24.7733 -24.7664 -24.7660 -24.7660 -24.7660
   -24.7660 -24.7657 -24.7633 -24.7633 -24.7560 -24.7557 -24.7557 -24.7556
   -24.7519 -24.7517 -24.7517 -24.7514 -24.7335 -24.7334 -24.7149 -24.7146
   -24.7146 -24.7144 -24.7011 -24.7010  -1.2049  -0.9752  -0.8282  -0.8273
    -0.6085  -0.6075  -0.1278   0.0800   0.0812   0.0823   0.0830   0.2328
     0.2457   0.2468   0.4012   0.4021   0.4934   0.5323   0.5331   0.5822
     0.5831   0.6094   0.6351   0.6359   0.6896   0.7662   0.7791   0.7801
     0.8048   0.8075   0.8085   0.8953   0.9089   0.9101   0.9305   0.9681
     7.0752   7.0871   7.0876   7.3175   7.3494   7.3501   7.5179   7.5191
     7.5495   7.8381   7.9137   7.9421   7.9431   7.9697   8.1516   8.1521
     8.1553   8.1953   8.2014   8.2020   8.2790   8.2797   8.3476   8.3491
     8.3893   8.5427   8.7028   8.7039   8.8026   8.8037   9.0022   9.0029
     9.0631   9.1156   9.1166   9.1866   9.2583   9.3753   9.3759   9.4374
     9.4382   9.5134   9.5159   9.5168   9.5868   9.5876   9.8196   9.8614
     9.8632   9.9450   9.9460  10.0833  10.0988  10.1401  10.2293  10.2507
    10.2877  10.3144  10.3151  10.3451  10.3855  10.3867  10.4068  10.4079
    10.4638  10.4790  10.4810  10.5955  10.8911  10.9288  10.9297  10.9331
    10.9353  11.0508  11.0516  11.1025  11.1046  11.1401  11.1790  11.1805
    11.1839  11.3662  11.3894  11.3914  11.4058  11.4070  11.4912  11.5847
    11.6001  11.6023  11.6431  11.6451  11.6456  11.6468  11.6747  11.6845
    11.7496  11.7497  11.8218  11.8220  11.9007  11.9013  12.0755  12.0760
    12.2047  12.4042  12.4046  12.4880  12.7259  12.7268  12.7299  12.7306
    12.7669  12.7671  12.7795  12.7806  12.7819  12.7841  12.8814  12.9321
    12.9329  12.9450  13.0101  13.1623  13.1867  13.2949

          k = 0.5000-0.0000 0.1957 ( 87350 PWs)   bands (ev):

   -60.5762 -60.5762 -60.5741 -60.5741 -60.5741 -60.5741 -60.5699 -60.5699
   -60.5698 -60.5698 -60.5684 -60.5683 -60.5683 -60.5683 -60.5683 -60.5682
   -60.5677 -60.5676 -34.1680 -34.1678 -34.1660 -34.1657 -34.1653 -34.1652
   -34.1650 -34.1650 -34.1649 -34.1648 -34.1647 -34.1647 -34.1647 -34.1647
   -34.1646 -34.1646 -34.1645 -34.1645 -34.1645 -34.1645 -34.1644 -34.1644
   -34.1643 -34.1642 -34.1641 -34.1641 -34.1640 -34.1640 -34.1640 -34.1639
   -34.1638 -34.1638 -34.1637 -34.1636 -34.1635 -34.1635 -34.1634 -34.1633
   -34.1633 -34.1632 -34.1632 -34.1631 -34.1630 -34.1628 -34.1628 -34.1627
   -34.1624 -34.1622 -34.1620 -34.1618 -34.1617 -34.1617 -34.1616 -34.1615
   -34.1615 -34.1614 -34.1613 -34.1613 -34.1611 -34.1610 -34.1609 -34.1608
   -34.1608 -34.1607 -34.1606 -34.1605 -34.1604 -34.1604 -34.1602 -34.1599
   -34.1584 -34.1582 -34.1350 -34.1347 -34.1331 -34.1325 -34.1322 -34.1321
   -34.1320 -34.1319 -34.1318 -34.1318 -34.1317 -34.1317 -34.1316 -34.1316
   -34.1315 -34.1315 -34.1315 -34.1314 -34.1313 -34.1313 -34.1313 -34.1313
   -34.1312 -34.1311 -34.1311 -34.1311 -34.1310 -34.1309 -34.1309 -34.1308
   -34.1307 -34.1307 -34.1307 -34.1307 -34.1306 -34.1305 -34.1305 -34.1305
   -34.1304 -34.1304 -34.1304 -34.1304 -34.1303 -34.1303 -34.1303 -34.1302
   -34.1302 -34.1302 -34.1301 -34.1300 -34.1299 -34.1299 -34.1299 -34.1298
   -34.1297 -34.1297 -34.1297 -34.1296 -34.1296 -34.1295 -34.1295 -34.1294
   -34.1293 -34.1293 -34.1292 -34.1292 -34.1291 -34.1289 -34.1287 -34.1281
   -34.1266 -34.1262 -34.1188 -34.1169 -34.1167 -34.1165 -34.1163 -34.1163
   -34.1162 -34.1158 -34.1156 -34.1155 -34.1155 -34.1153 -34.1152 -34.1151
   -34.1151 -34.1150 -34.1150 -34.1147 -34.1145 -34.1144 -34.1141 -34.1140
   -34.1140 -34.1136 -34.1132 -34.1131 -34.1131 -34.1129 -34.1127 -34.1127
   -34.1127 -34.1126 -34.1126 -34.1124 -34.1122 -34.1102 -24.9081 -24.9080
   -24.9080 -24.9079 -24.8978 -24.8978 -24.8746 -24.8746 -24.8607 -24.8606
   -24.8606 -24.8605 -24.8042 -24.8042 -24.7940 -24.7940 -24.7940 -24.7940
   -24.7858 -24.7858 -24.7810 -24.7809 -24.7809 -24.7808 -24.7784 -24.7784
   -24.7736 -24.7735 -24.7735 -24.7735 -24.7661 -24.7660 -24.7660 -24.7660
   -24.7660 -24.7660 -24.7633 -24.7633 -24.7558 -24.7557 -24.7557 -24.7557
   -24.7517 -24.7517 -24.7517 -24.7516 -24.7334 -24.7334 -24.7147 -24.7146
   -24.7146 -24.7145 -24.7011 -24.7011  -1.2049  -0.9752  -0.8278  -0.8277
    -0.6081  -0.6080  -0.1278   0.0807   0.0809   0.0824   0.0826   0.2329
     0.2463   0.2464   0.4016   0.4018   0.4933   0.5324   0.5328   0.5825
     0.5827   0.6094   0.6352   0.6356   0.6898   0.7664   0.7794   0.7796
     0.8051   0.8078   0.8082   0.8952   0.9094   0.9098   0.9306   0.9679
     7.0751   7.0872   7.0878   7.3172   7.3496   7.3502   7.5184   7.5186
     7.5492   7.8381   7.9137   7.9424   7.9427   7.9697   8.1516   8.1520
     8.1556   8.1955   8.2014   8.2018   8.2789   8.2795   8.3483   8.3484
     8.3890   8.5423   8.7031   8.7037   8.8026   8.8037   9.0020   9.0027
     9.0634   9.1160   9.1167   9.1865   9.2584   9.3755   9.3762   9.4378
     9.4379   9.5136   9.5160   9.5170   9.5867   9.5874   9.8199   9.8615
     9.8630   9.9448   9.9463  10.0836  10.0989  10.1404  10.2294  10.2505
    10.2875  10.3141  10.3155  10.3452  10.3856  10.3861  10.4072  10.4076
    10.4634  10.4799  10.4806  10.5956  10.8912  10.9290  10.9294  10.9336
    10.9346  11.0506  11.0515  11.1026  11.1042  11.1398  11.1793  11.1804
    11.1847  11.3665  11.3896  11.3914  11.4062  11.4070  11.4907  11.5837
    11.6009  11.6016  11.6444  11.6445  11.6458  11.6459  11.6738  11.6845
    11.7494  11.7500  11.8213  11.8221  11.9007  11.9011  12.0755  12.0756
    12.2052  12.4043  12.4047  12.4880  12.7258  12.7268  12.7304  12.7305
    12.7662  12.7675  12.7792  12.7805  12.7821  12.7839  12.8816  12.9323
    12.9329  12.9449  13.0101  13.1624  13.1866  13.2952

          k =-0.5000 0.0000 0.1957 ( 87350 PWs)   bands (ev):

   -60.5762 -60.5762 -60.5741 -60.5741 -60.5741 -60.5741 -60.5699 -60.5699
   -60.5698 -60.5698 -60.5684 -60.5683 -60.5683 -60.5683 -60.5683 -60.5682
   -60.5677 -60.5676 -34.1680 -34.1678 -34.1660 -34.1657 -34.1653 -34.1652
   -34.1650 -34.1650 -34.1649 -34.1648 -34.1647 -34.1647 -34.1647 -34.1647
   -34.1646 -34.1646 -34.1645 -34.1645 -34.1645 -34.1645 -34.1644 -34.1644
   -34.1643 -34.1642 -34.1641 -34.1641 -34.1640 -34.1640 -34.1640 -34.1639
   -34.1638 -34.1638 -34.1637 -34.1636 -34.1635 -34.1635 -34.1634 -34.1633
   -34.1633 -34.1633 -34.1632 -34.1631 -34.1630 -34.1628 -34.1628 -34.1627
   -34.1624 -34.1622 -34.1620 -34.1618 -34.1617 -34.1617 -34.1616 -34.1615
   -34.1615 -34.1614 -34.1613 -34.1613 -34.1611 -34.1610 -34.1609 -34.1608
   -34.1608 -34.1607 -34.1606 -34.1605 -34.1604 -34.1604 -34.1602 -34.1599
   -34.1584 -34.1582 -34.1350 -34.1347 -34.1331 -34.1325 -34.1322 -34.1321
   -34.1320 -34.1319 -34.1318 -34.1318 -34.1317 -34.1317 -34.1316 -34.1316
   -34.1315 -34.1315 -34.1315 -34.1314 -34.1314 -34.1313 -34.1313 -34.1313
   -34.1312 -34.1311 -34.1311 -34.1311 -34.1310 -34.1310 -34.1308 -34.1308
   -34.1307 -34.1307 -34.1307 -34.1307 -34.1306 -34.1305 -34.1305 -34.1305
   -34.1305 -34.1304 -34.1304 -34.1304 -34.1303 -34.1303 -34.1303 -34.1302
   -34.1302 -34.1301 -34.1301 -34.1300 -34.1300 -34.1299 -34.1298 -34.1298
   -34.1298 -34.1297 -34.1297 -34.1296 -34.1296 -34.1295 -34.1295 -34.1294
   -34.1293 -34.1293 -34.1292 -34.1292 -34.1291 -34.1289 -34.1287 -34.1281
   -34.1266 -34.1262 -34.1188 -34.1169 -34.1167 -34.1165 -34.1163 -34.1163
   -34.1162 -34.1158 -34.1156 -34.1155 -34.1155 -34.1153 -34.1152 -34.1151
   -34.1151 -34.1150 -34.1150 -34.1147 -34.1145 -34.1144 -34.1141 -34.1140
   -34.1140 -34.1136 -34.1132 -34.1131 -34.1131 -34.1129 -34.1127 -34.1127
   -34.1127 -34.1126 -34.1126 -34.1124 -34.1122 -34.1102 -24.9081 -24.9080
   -24.9080 -24.9079 -24.8978 -24.8978 -24.8746 -24.8746 -24.8607 -24.8606
   -24.8606 -24.8605 -24.8042 -24.8042 -24.7940 -24.7940 -24.7940 -24.7940
   -24.7858 -24.7858 -24.7810 -24.7809 -24.7809 -24.7808 -24.7784 -24.7784
   -24.7736 -24.7735 -24.7735 -24.7735 -24.7661 -24.7660 -24.7660 -24.7660
   -24.7660 -24.7660 -24.7633 -24.7633 -24.7558 -24.7557 -24.7557 -24.7557
   -24.7517 -24.7517 -24.7517 -24.7516 -24.7334 -24.7334 -24.7147 -24.7146
   -24.7146 -24.7145 -24.7011 -24.7011  -1.2049  -0.9752  -0.8278  -0.8277
    -0.6081  -0.6080  -0.1278   0.0804   0.0808   0.0825   0.0828   0.2329
     0.2462   0.2464   0.4016   0.4017   0.4933   0.5324   0.5328   0.5825
     0.5827   0.6094   0.6353   0.6355   0.6898   0.7663   0.7794   0.7796
     0.8051   0.8078   0.8082   0.8951   0.9094   0.9099   0.9306   0.9679
     7.0751   7.0873   7.0877   7.3172   7.3495   7.3503   7.5185   7.5186
     7.5492   7.8381   7.9137   7.9424   7.9427   7.9697   8.1516   8.1520
     8.1556   8.1955   8.2013   8.2018   8.2789   8.2795   8.3482   8.3485
     8.3890   8.5423   8.7029   8.7039   8.8029   8.8035   9.0020   9.0027
     9.0634   9.1160   9.1167   9.1865   9.2584   9.3758   9.3759   9.4377
     9.4380   9.5138   9.5161   9.5166   9.5866   9.5875   9.8199   9.8621
     9.8624   9.9455   9.9456  10.0836  10.0988  10.1404  10.2295  10.2505
    10.2875  10.3145  10.3151  10.3452  10.3853  10.3865  10.4069  10.4080
    10.4634  10.4798  10.4806  10.5956  10.8911  10.9290  10.9294  10.9332
    10.9350  11.0511  11.0511  11.1031  11.1037  11.1398  11.1794  11.1802
    11.1848  11.3665  11.3894  11.3917  11.4060  11.4072  11.4907  11.5839
    11.6012  11.6013  11.6438  11.6444  11.6460  11.6466  11.6737  11.6844
    11.7495  11.7499  11.8216  11.8218  11.9005  11.9012  12.0754  12.0757
    12.2052  12.4044  12.4046  12.4880  12.7261  12.7265  12.7302  12.7306
    12.7667  12.7671  12.7786  12.7806  12.7821  12.7844  12.8816  12.9325
    12.9328  12.9449  13.0101  13.1624  13.1865  13.2953

          k =-0.2500 0.1443 0.1957 ( 87383 PWs)   bands (ev):

   -60.5774 -60.5774 -60.5732 -60.5732 -60.5717 -60.5716 -60.5716 -60.5716
   -60.5696 -60.5695 -60.5695 -60.5695 -60.5689 -60.5689 -60.5674 -60.5674
   -60.5674 -60.5673 -34.1680 -34.1678 -34.1661 -34.1658 -34.1655 -34.1652
   -34.1652 -34.1651 -34.1650 -34.1650 -34.1649 -34.1648 -34.1648 -34.1648
   -34.1648 -34.1647 -34.1647 -34.1646 -34.1645 -34.1645 -34.1644 -34.1643
   -34.1643 -34.1643 -34.1643 -34.1642 -34.1642 -34.1641 -34.1641 -34.1640
   -34.1639 -34.1637 -34.1637 -34.1637 -34.1636 -34.1633 -34.1631 -34.1628
   -34.1628 -34.1628 -34.1628 -34.1626 -34.1623 -34.1623 -34.1622 -34.1622
   -34.1622 -34.1621 -34.1619 -34.1618 -34.1618 -34.1618 -34.1615 -34.1615
   -34.1615 -34.1614 -34.1614 -34.1613 -34.1613 -34.1613 -34.1613 -34.1610
   -34.1609 -34.1609 -34.1609 -34.1608 -34.1605 -34.1604 -34.1603 -34.1600
   -34.1584 -34.1583 -34.1350 -34.1347 -34.1331 -34.1326 -34.1323 -34.1322
   -34.1319 -34.1319 -34.1318 -34.1317 -34.1316 -34.1316 -34.1315 -34.1315
   -34.1314 -34.1314 -34.1314 -34.1314 -34.1313 -34.1313 -34.1313 -34.1312
   -34.1312 -34.1311 -34.1311 -34.1310 -34.1310 -34.1309 -34.1309 -34.1308
   -34.1308 -34.1308 -34.1308 -34.1307 -34.1307 -34.1306 -34.1306 -34.1306
   -34.1305 -34.1305 -34.1305 -34.1304 -34.1304 -34.1303 -34.1303 -34.1303
   -34.1303 -34.1302 -34.1302 -34.1301 -34.1300 -34.1300 -34.1299 -34.1298
   -34.1297 -34.1297 -34.1296 -34.1296 -34.1295 -34.1295 -34.1294 -34.1294
   -34.1293 -34.1292 -34.1291 -34.1291 -34.1290 -34.1289 -34.1287 -34.1281
   -34.1266 -34.1262 -34.1188 -34.1171 -34.1168 -34.1164 -34.1161 -34.1161
   -34.1159 -34.1158 -34.1158 -34.1156 -34.1154 -34.1154 -34.1153 -34.1153
   -34.1150 -34.1150 -34.1150 -34.1148 -34.1147 -34.1144 -34.1140 -34.1138
   -34.1135 -34.1135 -34.1134 -34.1132 -34.1130 -34.1130 -34.1130 -34.1129
   -34.1126 -34.1125 -34.1125 -34.1124 -34.1122 -34.1102 -24.9015 -24.9014
   -24.8817 -24.8814 -24.8814 -24.8811 -24.8779 -24.8775 -24.8775 -24.8771
   -24.8352 -24.8350 -24.8350 -24.8346 -24.8101 -24.8101 -24.8086 -24.8084
   -24.8084 -24.8082 -24.8044 -24.8043 -24.7897 -24.7897 -24.7823 -24.7822
   -24.7822 -24.7822 -24.7720 -24.7719 -24.7719 -24.7719 -24.7692 -24.7692
   -24.7617 -24.7617 -24.7617 -24.7617 -24.7441 -24.7439 -24.7439 -24.7437
   -24.7397 -24.7396 -24.7305 -24.7303 -24.7303 -24.7302 -24.7167 -24.7167
   -24.7056 -24.7055 -24.6936 -24.6936  -1.4066  -1.1735  -0.6541  -0.4411
    -0.3332  -0.3323  -0.2405  -0.1366  -0.1356   0.1407   0.1764   0.1772
     0.1780   0.3301   0.3310   0.3435   0.3549   0.3558   0.4745   0.4763
     0.6114   0.6124   0.6278   0.6289   0.7098   0.7745   0.7752   0.8039
     0.8052   0.8363   0.8372   0.8505   0.9454   0.9468   1.0065   1.0080
     6.8242   7.1803   7.4507   7.5356   7.5357   7.6786   7.7374   7.7638
     7.7640   7.8007   7.8010   7.8889   7.8891   7.9137   7.9149   8.0714
     8.0724   8.2257   8.2265   8.3025   8.4077   8.4141   8.4334   8.4341
     8.5060   8.5069   8.5588   8.5594   8.6648   8.6658   8.9021   8.9028
     8.9892   9.0300   9.0307   9.0735   9.1920   9.1927   9.1966   9.3824
     9.3830   9.5474   9.5488   9.5509   9.5518   9.5769   9.5772   9.5888
     9.6194   9.6197   9.6790   9.7843   9.7848  10.0666  10.2017  10.2023
    10.3211  10.3243  10.3249  10.3349  10.3350  10.4861  10.4868  10.4941
    10.5153  10.5165  10.5941  10.7405  10.7418  10.7790  10.8087  11.1375
    11.1449  11.1498  11.1518  11.1976  11.2226  11.2257  11.3859  11.3868
    11.4349  11.4362  11.4562  11.4627  11.4634  11.5542  11.6273  11.6303
    11.6306  11.6671  11.6682  11.7006  11.7015  11.7860  11.7869  11.8014
    11.8020  11.8229  11.9103  12.0295  12.0494  12.0504  12.0939  12.1056
    12.2109  12.2130  12.3349  12.3988  12.4402  12.5117  12.5493  12.5517
    12.5526  12.5783  12.5814  12.5842  12.6365  12.6374  12.7179  12.7185
    13.1198  13.1208  13.3290  13.3297  13.3523  13.6531

          k =-0.2500-0.1443-0.1957 ( 87383 PWs)   bands (ev):

   -60.5774 -60.5774 -60.5732 -60.5732 -60.5717 -60.5716 -60.5716 -60.5716
   -60.5696 -60.5695 -60.5695 -60.5695 -60.5689 -60.5689 -60.5674 -60.5674
   -60.5674 -60.5673 -34.1680 -34.1678 -34.1660 -34.1657 -34.1654 -34.1653
   -34.1652 -34.1652 -34.1650 -34.1649 -34.1649 -34.1649 -34.1648 -34.1648
   -34.1648 -34.1647 -34.1647 -34.1646 -34.1645 -34.1645 -34.1644 -34.1644
   -34.1643 -34.1643 -34.1642 -34.1642 -34.1642 -34.1641 -34.1641 -34.1641
   -34.1639 -34.1638 -34.1637 -34.1637 -34.1636 -34.1632 -34.1631 -34.1629
   -34.1628 -34.1628 -34.1628 -34.1626 -34.1624 -34.1623 -34.1622 -34.1622
   -34.1621 -34.1620 -34.1619 -34.1618 -34.1618 -34.1617 -34.1615 -34.1615
   -34.1614 -34.1613 -34.1613 -34.1613 -34.1613 -34.1613 -34.1612 -34.1609
   -34.1609 -34.1609 -34.1609 -34.1608 -34.1606 -34.1605 -34.1604 -34.1601
   -34.1585 -34.1582 -34.1350 -34.1347 -34.1331 -34.1326 -34.1323 -34.1322
   -34.1319 -34.1319 -34.1319 -34.1318 -34.1317 -34.1316 -34.1315 -34.1315
   -34.1314 -34.1314 -34.1314 -34.1313 -34.1313 -34.1313 -34.1313 -34.1312
   -34.1312 -34.1311 -34.1310 -34.1310 -34.1310 -34.1309 -34.1309 -34.1308
   -34.1308 -34.1308 -34.1307 -34.1307 -34.1307 -34.1306 -34.1306 -34.1306
   -34.1306 -34.1305 -34.1304 -34.1304 -34.1304 -34.1304 -34.1303 -34.1303
   -34.1302 -34.1302 -34.1302 -34.1301 -34.1300 -34.1299 -34.1299 -34.1298
   -34.1297 -34.1297 -34.1296 -34.1296 -34.1295 -34.1295 -34.1294 -34.1293
   -34.1293 -34.1292 -34.1292 -34.1291 -34.1290 -34.1288 -34.1287 -34.1281
   -34.1266 -34.1262 -34.1188 -34.1171 -34.1168 -34.1165 -34.1162 -34.1161
   -34.1159 -34.1158 -34.1157 -34.1156 -34.1154 -34.1154 -34.1153 -34.1153
   -34.1151 -34.1150 -34.1150 -34.1148 -34.1147 -34.1144 -34.1140 -34.1138
   -34.1135 -34.1135 -34.1134 -34.1133 -34.1130 -34.1130 -34.1129 -34.1128
   -34.1127 -34.1126 -34.1125 -34.1125 -34.1122 -34.1102 -24.9014 -24.9013
   -24.8817 -24.8814 -24.8814 -24.8811 -24.8779 -24.8775 -24.8775 -24.8771
   -24.8353 -24.8350 -24.8350 -24.8348 -24.8101 -24.8101 -24.8086 -24.8084
   -24.8084 -24.8082 -24.8043 -24.8042 -24.7897 -24.7897 -24.7822 -24.7822
   -24.7822 -24.7821 -24.7720 -24.7719 -24.7719 -24.7719 -24.7692 -24.7692
   -24.7617 -24.7617 -24.7617 -24.7617 -24.7441 -24.7439 -24.7439 -24.7437
   -24.7397 -24.7397 -24.7304 -24.7303 -24.7303 -24.7301 -24.7168 -24.7167
   -24.7055 -24.7054 -24.6937 -24.6936  -1.4066  -1.1735  -0.6543  -0.4413
    -0.3331  -0.3322  -0.2405  -0.1364  -0.1355   0.1407   0.1765   0.1774
     0.1781   0.3302   0.3311   0.3431   0.3547   0.3556   0.4744   0.4763
     0.6112   0.6122   0.6277   0.6288   0.7102   0.7745   0.7753   0.8038
     0.8051   0.8364   0.8371   0.8510   0.9453   0.9468   1.0065   1.0080
     6.8242   7.1807   7.4513   7.5355   7.5356   7.6784   7.7373   7.7636
     7.7639   7.8005   7.8008   7.8888   7.8890   7.9140   7.9149   8.0715
     8.0723   8.2255   8.2265   8.3022   8.4072   8.4140   8.4333   8.4342
     8.5061   8.5067   8.5588   8.5595   8.6651   8.6656   8.9021   8.9026
     8.9886   9.0301   9.0307   9.0735   9.1924   9.1928   9.1967   9.3827
     9.3835   9.5481   9.5487   9.5513   9.5519   9.5769   9.5771   9.5881
     9.6196   9.6202   9.6794   9.7846   9.7849  10.0672  10.2016  10.2023
    10.3215  10.3247  10.3263  10.3347  10.3350  10.4861  10.4871  10.4931
    10.5163  10.5171  10.5930  10.7404  10.7418  10.7785  10.8082  11.1361
    11.1455  11.1499  11.1519  11.1982  11.2225  11.2249  11.3855  11.3863
    11.4346  11.4358  11.4572  11.4622  11.4632  11.5539  11.6288  11.6297
    11.6307  11.6675  11.6684  11.6995  11.7005  11.7853  11.7861  11.8019
    11.8026  11.8231  11.9106  12.0273  12.0495  12.0509  12.0916  12.1058
    12.2122  12.2147  12.3346  12.3993  12.4413  12.5127  12.5479  12.5513
    12.5524  12.5775  12.5801  12.5852  12.6371  12.6379  12.7178  12.7186
    13.1200  13.1205  13.3286  13.3298  13.3525  13.6533

          k = 0.2500 0.1443-0.1957 ( 87383 PWs)   bands (ev):

   -60.5774 -60.5774 -60.5732 -60.5732 -60.5717 -60.5716 -60.5716 -60.5716
   -60.5696 -60.5695 -60.5695 -60.5695 -60.5689 -60.5689 -60.5674 -60.5674
   -60.5674 -60.5673 -34.1680 -34.1678 -34.1660 -34.1657 -34.1654 -34.1653
   -34.1652 -34.1652 -34.1650 -34.1649 -34.1649 -34.1649 -34.1648 -34.1648
   -34.1648 -34.1647 -34.1647 -34.1646 -34.1645 -34.1644 -34.1644 -34.1644
   -34.1643 -34.1643 -34.1642 -34.1642 -34.1642 -34.1641 -34.1641 -34.1641
   -34.1639 -34.1638 -34.1637 -34.1637 -34.1636 -34.1632 -34.1631 -34.1629
   -34.1628 -34.1628 -34.1628 -34.1626 -34.1624 -34.1623 -34.1622 -34.1622
   -34.1621 -34.1620 -34.1619 -34.1618 -34.1618 -34.1617 -34.1615 -34.1615
   -34.1614 -34.1613 -34.1613 -34.1613 -34.1613 -34.1613 -34.1612 -34.1609
   -34.1609 -34.1609 -34.1609 -34.1608 -34.1606 -34.1605 -34.1604 -34.1601
   -34.1585 -34.1582 -34.1350 -34.1347 -34.1331 -34.1326 -34.1323 -34.1322
   -34.1320 -34.1319 -34.1318 -34.1318 -34.1317 -34.1316 -34.1315 -34.1314
   -34.1314 -34.1314 -34.1314 -34.1313 -34.1313 -34.1313 -34.1313 -34.1312
   -34.1312 -34.1311 -34.1311 -34.1310 -34.1310 -34.1309 -34.1309 -34.1309
   -34.1308 -34.1308 -34.1307 -34.1307 -34.1307 -34.1307 -34.1306 -34.1306
   -34.1305 -34.1305 -34.1305 -34.1304 -34.1304 -34.1303 -34.1303 -34.1303
   -34.1303 -34.1302 -34.1302 -34.1301 -34.1300 -34.1299 -34.1299 -34.1298
   -34.1297 -34.1297 -34.1296 -34.1296 -34.1295 -34.1295 -34.1294 -34.1293
   -34.1293 -34.1292 -34.1292 -34.1291 -34.1290 -34.1288 -34.1287 -34.1281
   -34.1266 -34.1262 -34.1188 -34.1171 -34.1168 -34.1165 -34.1162 -34.1161
   -34.1158 -34.1158 -34.1157 -34.1156 -34.1154 -34.1154 -34.1153 -34.1153
   -34.1151 -34.1150 -34.1150 -34.1148 -34.1147 -34.1144 -34.1140 -34.1138
   -34.1135 -34.1135 -34.1134 -34.1133 -34.1130 -34.1130 -34.1129 -34.1128
   -34.1126 -34.1126 -34.1125 -34.1125 -34.1122 -34.1102 -24.9014 -24.9013
   -24.8817 -24.8814 -24.8814 -24.8811 -24.8779 -24.8775 -24.8775 -24.8771
   -24.8353 -24.8350 -24.8350 -24.8348 -24.8101 -24.8101 -24.8086 -24.8084
   -24.8084 -24.8082 -24.8043 -24.8042 -24.7897 -24.7897 -24.7822 -24.7822
   -24.7822 -24.7821 -24.7720 -24.7719 -24.7719 -24.7719 -24.7692 -24.7692
   -24.7617 -24.7617 -24.7617 -24.7617 -24.7441 -24.7439 -24.7439 -24.7437
   -24.7397 -24.7397 -24.7304 -24.7303 -24.7303 -24.7301 -24.7168 -24.7167
   -24.7055 -24.7054 -24.6937 -24.6936  -1.4066  -1.1735  -0.6543  -0.4413
    -0.3331  -0.3322  -0.2405  -0.1364  -0.1355   0.1407   0.1765   0.1773
     0.1782   0.3302   0.3311   0.3430   0.3547   0.3556   0.4743   0.4765
     0.6112   0.6122   0.6277   0.6289   0.7102   0.7745   0.7753   0.8038
     0.8051   0.8364   0.8371   0.8510   0.9453   0.9468   1.0065   1.0080
     6.8242   7.1806   7.4515   7.5357   7.5358   7.6786   7.7373   7.7635
     7.7637   7.8002   7.8004   7.8891   7.8892   7.9135   7.9147   8.0713
     8.0723   8.2256   8.2264   8.3020   8.4073   8.4133   8.4344   8.4352
     8.5061   8.5070   8.5588   8.5594   8.6654   8.6663   8.9004   8.9010
     8.9886   9.0302   9.0308   9.0731   9.1924   9.1930   9.1984   9.3823
     9.3830   9.5480   9.5492   9.5515   9.5524   9.5771   9.5774   9.5880
     9.6197   9.6201   9.6785   9.7847   9.7852  10.0673  10.2013  10.2018
    10.3214  10.3245  10.3252  10.3349  10.3352  10.4868  10.4875  10.4932
    10.5165  10.5177  10.5930  10.7400  10.7413  10.7785  10.8083  11.1361
    11.1456  11.1498  11.1519  11.1981  11.2225  11.2250  11.3857  11.3866
    11.4345  11.4358  11.4573  11.4623  11.4629  11.5536  11.6288  11.6293
    11.6320  11.6666  11.6678  11.6997  11.7005  11.7852  11.7860  11.8022
    11.8030  11.8231  11.9107  12.0272  12.0496  12.0505  12.0916  12.1063
    12.2123  12.2144  12.3347  12.3995  12.4414  12.5117  12.5485  12.5510
    12.5523  12.5773  12.5803  12.5859  12.6365  12.6375  12.7184  12.7190
    13.1199  13.1209  13.3288  13.3295  13.3523  13.6534

          k = 0.0000-0.2887 0.1957 ( 87383 PWs)   bands (ev):

   -60.5774 -60.5774 -60.5732 -60.5732 -60.5717 -60.5716 -60.5716 -60.5716
   -60.5696 -60.5695 -60.5695 -60.5695 -60.5689 -60.5689 -60.5674 -60.5674
   -60.5674 -60.5673 -34.1680 -34.1678 -34.1661 -34.1658 -34.1653 -34.1653
   -34.1652 -34.1652 -34.1650 -34.1649 -34.1649 -34.1648 -34.1648 -34.1648
   -34.1648 -34.1647 -34.1647 -34.1646 -34.1645 -34.1645 -34.1644 -34.1643
   -34.1643 -34.1643 -34.1643 -34.1642 -34.1641 -34.1641 -34.1641 -34.1641
   -34.1639 -34.1638 -34.1637 -34.1637 -34.1636 -34.1632 -34.1631 -34.1629
   -34.1628 -34.1628 -34.1628 -34.1627 -34.1624 -34.1623 -34.1622 -34.1622
   -34.1622 -34.1620 -34.1619 -34.1618 -34.1618 -34.1616 -34.1615 -34.1615
   -34.1615 -34.1614 -34.1613 -34.1613 -34.1613 -34.1613 -34.1612 -34.1610
   -34.1609 -34.1609 -34.1609 -34.1608 -34.1606 -34.1605 -34.1603 -34.1601
   -34.1585 -34.1582 -34.1350 -34.1347 -34.1331 -34.1326 -34.1323 -34.1322
   -34.1319 -34.1319 -34.1318 -34.1317 -34.1317 -34.1316 -34.1315 -34.1315
   -34.1314 -34.1314 -34.1314 -34.1313 -34.1313 -34.1313 -34.1313 -34.1312
   -34.1312 -34.1311 -34.1311 -34.1310 -34.1310 -34.1309 -34.1309 -34.1309
   -34.1308 -34.1308 -34.1307 -34.1307 -34.1307 -34.1306 -34.1306 -34.1306
   -34.1305 -34.1305 -34.1305 -34.1304 -34.1304 -34.1303 -34.1303 -34.1303
   -34.1302 -34.1302 -34.1302 -34.1301 -34.1300 -34.1299 -34.1299 -34.1298
   -34.1297 -34.1297 -34.1296 -34.1296 -34.1295 -34.1295 -34.1294 -34.1293
   -34.1293 -34.1292 -34.1292 -34.1291 -34.1289 -34.1289 -34.1287 -34.1281
   -34.1266 -34.1262 -34.1188 -34.1171 -34.1169 -34.1164 -34.1162 -34.1161
   -34.1159 -34.1158 -34.1157 -34.1156 -34.1154 -34.1154 -34.1153 -34.1153
   -34.1150 -34.1150 -34.1150 -34.1148 -34.1147 -34.1143 -34.1141 -34.1138
   -34.1135 -34.1135 -34.1134 -34.1132 -34.1130 -34.1130 -34.1129 -34.1128
   -34.1127 -34.1125 -34.1125 -34.1124 -34.1122 -34.1102 -24.9014 -24.9014
   -24.8818 -24.8814 -24.8814 -24.8810 -24.8780 -24.8775 -24.8775 -24.8770
   -24.8354 -24.8350 -24.8350 -24.8346 -24.8101 -24.8101 -24.8087 -24.8084
   -24.8084 -24.8080 -24.8043 -24.8043 -24.7897 -24.7897 -24.7823 -24.7822
   -24.7822 -24.7821 -24.7720 -24.7719 -24.7719 -24.7719 -24.7692 -24.7692
   -24.7617 -24.7617 -24.7617 -24.7617 -24.7442 -24.7439 -24.7439 -24.7437
   -24.7397 -24.7396 -24.7304 -24.7303 -24.7303 -24.7303 -24.7167 -24.7167
   -24.7055 -24.7055 -24.6936 -24.6936  -1.4066  -1.1735  -0.6542  -0.4412
    -0.3333  -0.3321  -0.2405  -0.1367  -0.1354   0.1407   0.1763   0.1774
     0.1781   0.3300   0.3312   0.3433   0.3549   0.3556   0.4745   0.4763
     0.6114   0.6122   0.6277   0.6289   0.7100   0.7745   0.7753   0.8039
     0.8051   0.8363   0.8372   0.8508   0.9454   0.9468   1.0065   1.0080
     6.8242   7.1805   7.4510   7.5355   7.5357   7.6785   7.7373   7.7636
     7.7640   7.8006   7.8009   7.8888   7.8891   7.9136   7.9152   8.0714
     8.0724   8.2255   8.2265   8.3024   8.4074   8.4140   8.4331   8.4344
     8.5059   8.5070   8.5587   8.5596   8.6651   8.6655   8.9020   8.9028
     8.9889   9.0298   9.0310   9.0735   9.1921   9.1928   9.1966   9.3824
     9.3834   9.5479   9.5486   9.5508   9.5522   9.5768   9.5773   9.5885
     9.6194   9.6201   9.6792   9.7843   9.7850  10.0669  10.2015  10.2024
    10.3214  10.3246  10.3255  10.3349  10.3350  10.4860  10.4871  10.4936
    10.5160  10.5166  10.5936  10.7402  10.7421  10.7787  10.8085  11.1367
    11.1452  11.1499  11.1519  11.1979  11.2227  11.2252  11.3856  11.3866
    11.4347  11.4360  11.4567  11.4622  11.4636  11.5540  11.6284  11.6296
    11.6307  11.6673  11.6683  11.7000  11.7011  11.7855  11.7867  11.8016
    11.8023  11.8230  11.9105  12.0284  12.0495  12.0506  12.0927  12.1057
    12.2116  12.2138  12.3347  12.3991  12.4407  12.5122  12.5490  12.5512
    12.5525  12.5784  12.5801  12.5848  12.6365  12.6380  12.7176  12.7188
    13.1198  13.1207  13.3287  13.3298  13.3524  13.6532

          k =-0.0000 0.2887 0.1957 ( 87383 PWs)   bands (ev):

   -60.5774 -60.5774 -60.5732 -60.5732 -60.5717 -60.5716 -60.5716 -60.5716
   -60.5696 -60.5695 -60.5695 -60.5695 -60.5689 -60.5689 -60.5674 -60.5674
   -60.5674 -60.5673 -34.1680 -34.1678 -34.1661 -34.1658 -34.1653 -34.1653
   -34.1652 -34.1652 -34.1650 -34.1649 -34.1649 -34.1648 -34.1648 -34.1648
   -34.1648 -34.1647 -34.1647 -34.1646 -34.1645 -34.1645 -34.1644 -34.1643
   -34.1643 -34.1643 -34.1643 -34.1642 -34.1641 -34.1641 -34.1641 -34.1641
   -34.1639 -34.1638 -34.1637 -34.1637 -34.1636 -34.1632 -34.1631 -34.1629
   -34.1628 -34.1628 -34.1628 -34.1627 -34.1624 -34.1623 -34.1622 -34.1622
   -34.1622 -34.1620 -34.1619 -34.1618 -34.1618 -34.1616 -34.1615 -34.1615
   -34.1615 -34.1614 -34.1613 -34.1613 -34.1613 -34.1613 -34.1612 -34.1610
   -34.1609 -34.1609 -34.1609 -34.1608 -34.1606 -34.1605 -34.1603 -34.1601
   -34.1585 -34.1582 -34.1350 -34.1347 -34.1331 -34.1326 -34.1323 -34.1322
   -34.1319 -34.1319 -34.1318 -34.1317 -34.1316 -34.1316 -34.1315 -34.1315
   -34.1314 -34.1314 -34.1314 -34.1314 -34.1313 -34.1313 -34.1312 -34.1312
   -34.1312 -34.1311 -34.1311 -34.1310 -34.1310 -34.1309 -34.1309 -34.1308
   -34.1308 -34.1308 -34.1307 -34.1307 -34.1307 -34.1307 -34.1306 -34.1306
   -34.1306 -34.1305 -34.1304 -34.1304 -34.1304 -34.1303 -34.1303 -34.1303
   -34.1302 -34.1302 -34.1302 -34.1301 -34.1300 -34.1300 -34.1299 -34.1298
   -34.1297 -34.1297 -34.1296 -34.1296 -34.1295 -34.1295 -34.1294 -34.1293
   -34.1293 -34.1292 -34.1292 -34.1291 -34.1290 -34.1289 -34.1287 -34.1281
   -34.1266 -34.1262 -34.1188 -34.1171 -34.1168 -34.1164 -34.1162 -34.1161
   -34.1159 -34.1158 -34.1157 -34.1156 -34.1154 -34.1154 -34.1153 -34.1153
   -34.1150 -34.1150 -34.1150 -34.1148 -34.1147 -34.1143 -34.1141 -34.1138
   -34.1135 -34.1135 -34.1134 -34.1132 -34.1130 -34.1130 -34.1129 -34.1128
   -34.1127 -34.1125 -34.1125 -34.1124 -34.1122 -34.1102 -24.9014 -24.9014
   -24.8818 -24.8814 -24.8814 -24.8810 -24.8780 -24.8775 -24.8775 -24.8770
   -24.8354 -24.8350 -24.8350 -24.8346 -24.8101 -24.8101 -24.8087 -24.8084
   -24.8084 -24.8080 -24.8043 -24.8043 -24.7897 -24.7897 -24.7823 -24.7822
   -24.7822 -24.7821 -24.7720 -24.7719 -24.7719 -24.7719 -24.7692 -24.7692
   -24.7617 -24.7617 -24.7617 -24.7617 -24.7442 -24.7439 -24.7439 -24.7437
   -24.7397 -24.7396 -24.7304 -24.7303 -24.7303 -24.7303 -24.7167 -24.7167
   -24.7055 -24.7055 -24.6936 -24.6936  -1.4066  -1.1735  -0.6542  -0.4412
    -0.3333  -0.3321  -0.2405  -0.1367  -0.1354   0.1407   0.1763   0.1774
     0.1780   0.3300   0.3311   0.3433   0.3548   0.3556   0.4745   0.4763
     0.6114   0.6122   0.6278   0.6289   0.7100   0.7745   0.7753   0.8039
     0.8051   0.8364   0.8372   0.8508   0.9453   0.9468   1.0065   1.0080
     6.8242   7.1803   7.4512   7.5357   7.5359   7.6787   7.7373   7.7634
     7.7639   7.8002   7.8006   7.8890   7.8893   7.9132   7.9148   8.0713
     8.0724   8.2255   8.2265   8.3022   8.4075   8.4133   8.4341   8.4355
     8.5060   8.5071   8.5586   8.5595   8.6656   8.6660   8.9004   8.9011
     8.9890   9.0298   9.0310   9.0731   9.1923   9.1930   9.1983   9.3819
     9.3830   9.5481   9.5489   9.5512   9.5523   9.5770   9.5776   9.5884
     9.6194   9.6200   9.6783   9.7846   9.7852  10.0670  10.2012  10.2020
    10.3213  10.3240  10.3248  10.3350  10.3352  10.4866  10.4876  10.4936
    10.5164  10.5170  10.5936  10.7397  10.7416  10.7788  10.8085  11.1367
    11.1452  11.1499  11.1519  11.1979  11.2227  11.2253  11.3859  11.3869
    11.4347  11.4360  11.4568  11.4621  11.4633  11.5538  11.6286  11.6300
    11.6310  11.6666  11.6675  11.7001  11.7011  11.7855  11.7866  11.8019
    11.8027  11.8229  11.9105  12.0284  12.0494  12.0505  12.0927  12.1063
    12.2115  12.2137  12.3347  12.3992  12.4408  12.5111  12.5491  12.5511
    12.5525  12.5784  12.5802  12.5855  12.6360  12.6375  12.7181  12.7193
    13.1199  13.1209  13.3286  13.3298  13.3523  13.6533

     highest occupied level (ev):    13.6534

!    total energy              =  -11463.76768727 Ry
     estimated scf accuracy    <          6.2E-11 Ry

     The total energy is the sum of the following terms:
     one-electron contribution =   -5283.01016689 Ry
     hartree contribution      =    2927.02661978 Ry
     xc contribution           =   -2341.80366226 Ry
     ewald contribution        =   -6763.99353347 Ry
     Dispersion Correction     =      -1.98694443 Ry

     convergence has been achieved in  23 iterations

     Forces acting on atoms (cartesian axes, Ry/au):

     atom    1 type  1   force =    -0.00504633    0.00001636   -0.00819660
     atom    2 type  1   force =     0.00002994   -0.00024137   -0.00017599
     atom    3 type  1   force =     0.00002462    0.00024030   -0.00017823
     atom    4 type  1   force =     0.00005361   -0.00022411   -0.00017965
     atom    5 type  1   force =     0.00005570    0.00022556   -0.00017456
     atom    6 type  1   force =     0.00006309   -0.00000030    0.00001173
     atom    7 type  1   force =     0.00005595    0.00025453   -0.00017853
     atom    8 type  1   force =     0.00006295    0.00000010    0.00001176
     atom    9 type  1   force =     0.00005366   -0.00025885   -0.00017574
     atom   10 type  1   force =     0.00000137    0.00000242    0.00000118
     atom   11 type  1   force =    -0.00000224    0.00000005    0.00001167
     atom   12 type  1   force =     0.00000160   -0.00000211    0.00000063
     atom   13 type  1   force =     0.00000561    0.00000005    0.00000091
     atom   14 type  1   force =     0.00000280    0.00000468    0.00001252
     atom   15 type  1   force =     0.00000291   -0.00000452    0.00001253
     atom   16 type  1   force =     0.00000446    0.00000394    0.00001164
     atom   17 type  1   force =     0.00000445   -0.00000379    0.00001171
     atom   18 type  1   force =    -0.00000512    0.00000015    0.00001253
     atom   19 type  2   force =     0.00000991    0.00000021    0.00060538
     atom   20 type  2   force =     0.00000467    0.00000942    0.00065591
     atom   21 type  2   force =     0.00000132    0.00000462    0.00065256
     atom   22 type  2   force =    -0.00000330   -0.00000399    0.00065660
     atom   23 type  2   force =     0.00001019   -0.00000065    0.00065121
     atom   24 type  2   force =    -0.00000375    0.00000008    0.00063904
     atom   25 type  2   force =    -0.00000566   -0.00000514    0.00065834
     atom   26 type  2   force =    -0.00000004    0.00000004    0.00064382
     atom   27 type  2   force =     0.00000525   -0.00000519    0.00064952
     atom   28 type  2   force =     0.00205290   -0.00102966    0.00164286
     atom   29 type  2   force =     0.00001717    0.00000321   -0.00060015
     atom   30 type  2   force =     0.00003116   -0.00013739   -0.00006215
     atom   31 type  2   force =     0.00026945    0.00116122    0.00078184
     atom   32 type  2   force =     0.00005551    0.00008542   -0.00054782
     atom   33 type  2   force =    -0.00001662   -0.00004291   -0.00061052
     atom   34 type  2   force =     0.00001044   -0.00000460   -0.00060919
     atom   35 type  2   force =     0.00001453    0.00000058   -0.00059106
     atom   36 type  2   force =    -0.00009141   -0.00004219   -0.00057830
     atom   37 type  2   force =     0.00002754    0.00014115    0.00123203
     atom   38 type  2   force =     0.00001582   -0.00000176    0.00069391
     atom   39 type  2   force =     0.00196896    0.00098007    0.00285028
     atom   40 type  2   force =     0.00027192   -0.00112648    0.00204925
     atom   41 type  2   force =    -0.00001938    0.00004266    0.00068409
     atom   42 type  2   force =     0.00005451   -0.00008451    0.00074661
     atom   43 type  2   force =     0.00001390   -0.00000176    0.00070416
     atom   44 type  2   force =     0.00000952    0.00000279    0.00068359
     atom   45 type  2   force =    -0.00009223    0.00004220    0.00071444
     atom   46 type  2   force =     0.00000970    0.00000022   -0.00068942
     atom   47 type  2   force =     0.00000096   -0.00000491   -0.00064213
     atom   48 type  2   force =     0.00000522   -0.00000966   -0.00063848
     atom   49 type  2   force =     0.00001109   -0.00000019   -0.00064268
     atom   50 type  2   force =    -0.00000404    0.00000317   -0.00063741
     atom   51 type  2   force =    -0.00000375    0.00000014   -0.00065492
     atom   52 type  2   force =     0.00000478    0.00000534   -0.00064446
     atom   53 type  2   force =    -0.00000015    0.00000007   -0.00065067
     atom   54 type  2   force =    -0.00000512    0.00000528   -0.00063558

     Total force =     0.011659     Total SCF correction =     0.000045


     Computing stress (Cartesian axis) and pressure

          total   stress  (Ry/bohr**3)                   (kbar)     P=       18.83
   0.00015292  -0.00000050   0.00000003           22.50       -0.07        0.00
  -0.00000050   0.00015292  -0.00000000           -0.07       22.50       -0.00
   0.00000003  -0.00000000   0.00007821            0.00       -0.00       11.51


     Writing all to output data dir ./WSe.save/ :
     XML data file, charge density, pseudopotentials, collected wavefunctions
 
     init_run     :      9.76s CPU     11.69s WALL (       1 calls)
     electrons    :    705.63s CPU    863.24s WALL (       1 calls)
     forces       :      7.21s CPU      7.83s WALL (       1 calls)
     force_london :      0.04s CPU      0.04s WALL (       1 calls)
     stress       :    109.31s CPU    117.15s WALL (       1 calls)
     stres_london :      0.04s CPU      0.04s WALL (       1 calls)

     Called by init_run:
     wfcinit      :      8.97s CPU     10.77s WALL (       1 calls)
     potinit      :      0.06s CPU      0.08s WALL (       1 calls)
     hinit0       :      0.35s CPU      0.40s WALL (       1 calls)

     Called by electrons:
     c_bands      :    665.51s CPU    814.83s WALL (      24 calls)
     sum_band     :     38.11s CPU     45.34s WALL (      24 calls)
     v_of_rho     :      1.35s CPU      1.53s WALL (      24 calls)
     mix_rho      :      0.52s CPU      0.58s WALL (      24 calls)
     energy_londo :      0.05s CPU      0.05s WALL (       1 calls)

     Called by c_bands:
     init_us_2    :      8.73s CPU      8.84s WALL (     153 calls)
     init_us_2:cp :      8.72s CPU      8.84s WALL (     153 calls)
     cegterg      :    634.39s CPU    771.34s WALL (      72 calls)

     Called by *egterg:
     cdiaghg      :     46.75s CPU    119.26s WALL (     464 calls)
     h_psi        :    365.04s CPU    404.36s WALL (     470 calls)
     g_psi        :      1.53s CPU      1.57s WALL (     395 calls)

     Called by h_psi:
     h_psi:calbec :     95.18s CPU    102.05s WALL (     470 calls)
     vloc_psi     :    182.84s CPU    214.23s WALL (     470 calls)
     add_vuspsi   :     83.28s CPU     83.86s WALL (     470 calls)

     General routines
     calbec       :    102.17s CPU    112.96s WALL (     485 calls)
     fft          :      1.08s CPU      1.23s WALL (     265 calls)
     ffts         :      0.06s CPU      0.09s WALL (      24 calls)
     fftw         :    194.40s CPU    227.62s WALL (  190424 calls)
 
     Parallel routines
     fft_scatt_xy :     22.89s CPU     26.15s WALL (  190713 calls)
     fft_scatt_yz :    108.90s CPU    130.35s WALL (  190713 calls)
 
     PWSCF        :  13m53.97s CPU  16m51.65s WALL

 
   This run was terminated on:  17:25:37   5Nov2024            

=------------------------------------------------------------------------------=
   JOB DONE.
=------------------------------------------------------------------------------=
